
                                 *****************
                                 * O   R   C   A *
                                 *****************

                                            #,                                       
                                            ###                                      
                                            ####                                     
                                            #####                                    
                                            ######                                   
                                           ########,                                 
                                     ,,################,,,,,                         
                               ,,#################################,,                 
                          ,,##########################################,,             
                       ,#########################################, ''#####,          
                    ,#############################################,,   '####,        
                  ,##################################################,,,,####,       
                ,###########''''           ''''###############################       
              ,#####''   ,,,,##########,,,,          '''####'''          '####       
            ,##' ,,,,###########################,,,                        '##       
           ' ,,###''''                  '''############,,,                           
         ,,##''                                '''############,,,,        ,,,,,,###''
      ,#''                                            '''#######################'''  
     '                                                          ''''####''''         
             ,#######,   #######,   ,#######,      ##                                
            ,#'     '#,  ##    ##  ,#'     '#,    #''#        ,####,   ,####,        
            ##       ##  ##   ,#'  ##            #'  '#       #'       #'  '#        
            ##       ##  #######   ##           ,######,      #####,   #    #        
            '#,     ,#'  ##    ##  '#,     ,#' ,#      #,     #,   #   #,  ,#        
             '#######'   ##     ##  '#######'  #'      '#     '####' # '####'        



                #########################################################
                #                        -***-                          #
                #          Department of theory and spectroscopy        #
                #                                                       #
                #                      Frank Neese                      #
                #                                                       #
                #     Directorship, Architecture, Infrastructure        #
                #                    SHARK, DRIVERS                     #
                #        Core code/Algorithms in most modules           #
                #                                                       #
                #        Max Planck Institute fuer Kohlenforschung      #
                #                Kaiser Wilhelm Platz 1                 #
                #                 D-45470 Muelheim/Ruhr                 #
                #                      Germany                          #
                #                                                       #
                #                  All rights reserved                  #
                #                        -***-                          #
                #########################################################


                         Program Version 6.0.1  -  RELEASE   -


 With contributions from (in alphabetic order):
[Max-Planck-Institut fuer Kohlenforschung]                               
  Daniel Aravena         : Magnetic Suceptibility                        
  Michael Atanasov       : Ab Initio Ligand Field Theory (pilot matlab implementation)
  Alexander A. Auer      : GIAO ZORA, VPT2 properties, NMR spectrum      
  Ute Becker             : All parallelization in ORCA, NUMFREQ, NUMCALC 
  Giovanni Bistoni       : ED, misc. LED, open-shell LED, HFLD           
  Martin Brehm           : Molecular dynamics                            
  Dmytro Bykov           : pre 5.0 version of the SCF Hessian            
  Marcos Casanova-Páez   : Triplet and SCS-CIS(D). UHF-(DLPNO)-IP/EA/STEOM-CCSD. UHF-CVS-IP/STEOM-CCSD   
  Vijay G. Chilkuri      : MRCI spin determinant printing, contributions to CSF-ICE 
  Pauline Colinet        : FMM embedding                                 
  Dipayan Datta          : RHF DLPNO-CCSD density                        
  Achintya Kumar Dutta   : EOM-CC, STEOM-CC                              
  Nicolas Foglia         : Exact transition moments, OPA infrastructure, MCD improvements    
  Dmitry Ganyushin       : Spin-Orbit,Spin-Spin,Magnetic field MRCI      
  Miquel Garcia-Rates    : C-PCM and meta-GGA Hessian, CCSD/C-PCM, Gaussian charge scheme 
  Tiago L. C. Gouveia    : GS-ROHF, GS-ROCIS                             
  Yang Guo               : DLPNO-NEVPT2, F12-NEVPT2, CIM, IAO-localization        
  Andreas Hansen         : Spin unrestricted coupled pair/coupled cluster methods 
  Ingolf Harden          : AUTO-CI MPn and infrastructure                
  Benjamin Helmich-Paris : MC-RPA, TRAH-(SCF,CASSCF), AVAS, COSX integrals, SCF dyn. polar. 
  Lee Huntington         : MR-EOM, pCC                                   
  Robert Izsak           : Overlap fitted RIJCOSX, COSX-SCS-MP3, EOM     
  Riya Kayal             : Wick's Theorem for AUTO-CI, AUTO-CI UHF-CCSDT 
  Emily Kempfer          : AUTO-CI, RHF CISDT and CCSDT                  
  Christian Kollmar      : KDIIS, OOCD, Brueckner-CCSD(T), CCSD density, CASPT2, CASPT2-K, improved NEVPT2 
  Axel Koslowski         : Symmetry handling                             
  Simone Kossmann        : meta-GGA functionals, TD-DFT gradient, OOMP2, (MP2 Hessian; deprecated post 5.0) 
  Lucas Lang             : DCDCAS                                        
  Marvin Lechner         : AUTO-CI (C++ implementation), FIC-MRCC        
  Spencer Leger          : CASSCF response                               
  Dagmar Lenk            : GEPOL surface, SMD, ORCA-2-JSON               
  Dimitrios Liakos       : Extrapolation schemes; Compound Job, initial MDCI parallelization 
  Dimitrios Manganas     : Further ROCIS development; embedding schemes. LFT, Crystal Embedding 
  Dimitrios Pantazis     : SARC Basis sets                               
  Anastasios Papadopoulos: AUTO-CI, single reference methods and gradients 
  Taras Petrenko         : pre 6.0 DFT Hessian and TD-DFT gradient, (ASA, deprecated), ECA, 1-Electron XAS/XES, NRVS 
  Peter Pinski           : DLPNO-MP2, DLPNO-MP2 Gradient                 
  Christoph Reimann      : Effective Core Potentials                     
  Marius Retegan         : Local ZFS, SOC                                
  Christoph Riplinger    : Optimizer, TS searches, QM/MM, DLPNO-CCSD(T), (RO)-DLPNO pert. Triples 
  Michael Roemelt        : Original ROCIS implementation                 
  Masaaki Saitow         : Open-shell DLPNO-CCSD energy and density      
  Barbara Sandhoefer     : DKH picture change effects                    
  Kantharuban Sivalingam : CASSCF convergence/infrastructure, NEVPT2 and variants, FIC-MRCI 
  Bernardo de Souza      : ESD, SOC TD-DFT                               
  Georgi L. Stoychev     : AutoAux, RI-MP2 NMR, DLPNO-MP2 response, X2C  
  Van Anh Tran           : RI-MP2 g-tensors                              
  Willem Van den Heuvel  : Paramagnetic NMR                              
  Zikuan Wang            : NOTCH, Electric field optimization            
  Frank Wennmohs         : Technical directorship and infrastructure     
  Hang Xu                : AUTO-CI-Response properties                   
                                                                         
[FACCTs GmbH]                                                            
  Markus Bursch, Miquel Garcia-Rates, Christoph Riplinger, Bernardo de Souza, Georgi L. Stoychev 
                                                                 
  APM, Basis sets (HGBS, AHGBS, def-TZVP (Ac-Lr), def2-XVPD (La-Lu)), CI-OPT, improved COSX, DLPNO-Multilevel,           
  DOCKER, DRACO, updates on ESD, GOAT, IRC, LR-CPCM, MBIS, meta-GGA TD-DFT gradient, ML-optimized integration grids, 
  MM, NACMEs, nearIR, NEB, NEB-TS, NL-DFT gradient (VV10), 2- and 3-layer-ONIOM, interface openCOSMO-RS, QMMM,   
  Crystal-QMMM, SF, symmetry and pop. for TD-DFT, r2SCAN hybrids, SOLVATOR                                   
                                                                         
[Other institutions]                                                     
  V. Asgeirsson          : NEB                                           
  Christoph Bannwarth    : sTDA-DFT, sTD-DFT, PBEh-3c, B97-3c, D3        
  Sebastian Ehlert       : rSCAN, r2SCAN, r2SCAN-3c, D4, dhf basis sets  
  Marvin Friede          : D4 for Fr, Ra, Ac-Lr                          
  Lars Goerigk           : TD-DFT with DH, B97 family of functionals     
  Stefan Grimme          : VdW corrections, initial TS optimization, DFT functionals, gCP, sTDA/sTD-DF 
  Waldemar Hujo          : DFT-NL                                        
  H. Jonsson             : NEB                                           
  Holger Kruse           : gCP                                           
  Marcel Mueller         : wB97X-3c, vDZP basis set                      
  Hagen Neugebauer       : wr2SCAN                                       
  Tobias Risthaus        : range-separated hybrid DFT                    
  Lukas Wittmann         : regularized MP2, r2SCAN double-hybrids, wr2SCAN        
                                                                         
We gratefully acknowledge several colleagues who have allowed us to      
interface, adapt or use parts of their codes:                            
  Ed Valeev, F. Pavosevic, A. Kumar             : LibInt (2-el integral package), F12 methods 
  Garnet Chan, S. Sharma, J. Yang, R. Olivares  : DMRG                   
  Ulf Ekstrom                                   : XCFun DFT Library      
  Mihaly Kallay                                 : mrcc  (arbitrary order and MRCC methods)
  Frank Weinhold                                : gennbo (NPA and NBO analysis)           
  Simon Mueller                                 : openCOSMO-RS                            
  Christopher J. Cramer and Donald G. Truhlar   : smd solvation model                     
  S Lehtola, MJT Oliveira, MAL Marques          : LibXC Library                           
  Liviu Ungur et al                             : ANISO software                          


 Your calculation uses the libint2 library for the computation of 2-el integrals
 For citations please refer to: http://libint.valeyev.net

 Your ORCA version has been built with support for libXC version: 6.2.2
 For citations please refer to: https://libxc.gitlab.io

 This ORCA versions uses:
   CBLAS   interface :  Fast vector & matrix operations
   LAPACKE interface :  Fast linear algebra routines
   SCALAPACK package :  Parallel linear algebra routines
   Shared memory     :  Shared parallel matrices
   BLAS/LAPACK       :  OpenBLAS 0.3.27  USE64BITINT DYNAMIC_ARCH NO_AFFINITY SkylakeX SINGLE_THREADED
        Core in use  :  SkylakeX
   Copyright (c) 2011-2014, The OpenBLAS Project


NOTE: MaxCore=5000 MB was set to SCF,MP2,MDCI,CIPSI,MRCI and CIS
      => If you want to overwrite this, your respective input block should be placed after the MaxCore statement
Your calculation utilizes the atom-pairwise dispersion correction
with the Becke-Johnson damping scheme (D3BJ)


Warning: RI is on but no J-basis has been assigned. Assigning Def2/J (nothing to worry about!)
================================================================================

----- Orbital basis set information -----
Your calculation utilizes the basis: 6-311++G(d,p)
   H, Li - Ne  : R. Krishnan, J. S. Binkley, R. Seeger and J. A. Pople, J. Chem. Phys. 72, 650 (1980).
   Na - Ar     : A. D. McLean and G. S. Chandler J. Chem. Phys. 72, 5639, (1980).
   K  - Ca     : J.-P. Blaudeau, M. P. McGrath, L. A. Curtiss and L. Radom, J. Chem. Phys. 107, 5016 (1997).
   Ga - Kr     : L. A. Curtiss, M. P. McGrath, J.-P. Blandeau, N. E. Davis, R. C. Binning and L. Radom, J. Chem. Phys. 103, 6104 (1995).
   Pol./Diff.
   H, Li - Cl  : T. Clark, J. Chandrasekhar and P. v. R. Schleyer, J. Comp. Chem. 4, 294 (1983).
   H - Ne      : M. J. Frisch, J. A. Pople and J. S. Binkley, J. Chem. Phys. 80, 3265 (1984).

----- AuxJ basis set information -----
Your calculation utilizes the auxiliary basis: def2/J
   F. Weigend, Phys. Chem. Chem. Phys. 8, 1057 (2006).

================================================================================
                                        WARNINGS
                       Please study these warnings very carefully!
================================================================================


WARNING: Geometry Optimization
  ===> : Switching off AutoStart
         For restart on a previous wavefunction, please use MOREAD

================================================================================
                                       INPUT FILE
================================================================================
NAME = input.inp
|  1> ! B3LYP D3BJ 6-311++G(d,p) Opt TightSCF RIJCOSX
|  2> 
|  3> %maxcore 5000
|  4> 
|  5> %pal
|  6> nprocs 32
|  7> end
|  8> 
|  9> * xyz 0 1
| 10> O        0.0034000000      0.9946000000     -1.2588000000                 
| 11> H        2.7350000000      0.7704000000     -0.0009000000                 
| 12> H       -2.7412000000      0.7689000000     -0.0006000000                 
| 13> S       -0.0078000000      0.2632000000     -0.0002000000                 
| 14> C        2.5639000000     -0.3006000000      0.0003000000                 
| 15> C       -2.5648000000     -0.3013000000      0.0004000000                 
| 16> C        1.3388000000     -0.8291000000      0.0009000000                 
| 17> H        3.4348000000     -0.9475000000      0.0010000000                 
| 18> C       -1.3373000000     -0.8247000000      0.0010000000                 
| 19> H       -3.4329000000     -0.9520000000      0.0011000000                 
| 20> H        1.1912000000     -1.9027000000      0.0020000000                 
| 21> H       -1.1910000000     -1.8986000000      0.0020000000                 
| 22> O        0.0037000000      0.9980000000      1.2564000000                 
| 23> *
| 24> 
| 25>                          ****END OF INPUT****
================================================================================

                       *****************************
                       * Geometry Optimization Run *
                       *****************************

Geometry optimization settings:
Update method            Update   .... BFGS
Choice of coordinates    CoordSys .... (2022) Redundant Internals
Initial Hessian          InHess   .... Almloef's Model
Max. no of cycles        MaxIter  .... 50

Convergence Tolerances:
Energy Change            TolE     ....  5.0000e-06 Eh
Max. Gradient            TolMAXG  ....  3.0000e-04 Eh/bohr
RMS Gradient             TolRMSG  ....  1.0000e-04 Eh/bohr
Max. Displacement        TolMAXD  ....  4.0000e-03 bohr
RMS Displacement         TolRMSD  ....  2.0000e-03 bohr
Strict Convergence                .... False

------------------------------------------------------------------------------
                        ORCA OPTIMIZATION COORDINATE SETUP
------------------------------------------------------------------------------

The optimization will be done in redundant internal coordinates (2022)
Making redundant internal coordinates   ...  (2022 redundants) done
Evaluating the initial hessian          ...  (Almloef) done
Evaluating the coordinates              ...  done
Calculating the B-matrix                .... done
Calculating the G-matrix                .... done
Diagonalizing the G-matrix              .... done
Small eigenvalue found = 2.590e-02
The first mode is                       ....   15
The number of degrees of freedom        ....   33

    -----------------------------------------------------------------
                    Redundant Internal Coordinates


    -----------------------------------------------------------------
         Definition                    Initial Value    Approx d2E/dq
    -----------------------------------------------------------------
      1. B(S   3,O   0)                  1.4557         1.185162   
      2. B(C   4,H   1)                  1.0846         0.367339   
      3. B(C   5,H   2)                  1.0846         0.367260   
      4. B(C   6,C   4)                  1.3342         0.766846   
      5. B(C   6,S   3)                  1.7339         0.476229   
      6. B(H   7,C   4)                  1.0849         0.366948   
      7. B(C   8,S   3)                  1.7179         0.505128   
      8. B(C   8,C   5)                  1.3344         0.766296   
      9. B(H   9,C   5)                  1.0849         0.366910   
     10. B(H  10,C   6)                  1.0837         0.368532   
     11. B(H  11,C   8)                  1.0838         0.368369   
     12. B(O  12,S   3)                  1.4557         1.185219   
     13. A(O   0,S   3,C   6)          108.1246         0.517096   
     14. A(C   6,S   3,C   8)          101.6599         0.444435   
     15. A(O   0,S   3,C   8)          108.9497         0.522843   
     16. A(C   6,S   3,O  12)          108.1378         0.517101   
     17. A(O   0,S   3,O  12)          119.5151         0.611539   
     18. A(C   8,S   3,O  12)          108.9760         0.522848   
     19. A(C   6,C   4,H   7)          120.0602         0.367100   
     20. A(H   1,C   4,H   7)          117.5281         0.292617   
     21. A(H   1,C   4,C   6)          122.4118         0.367167   
     22. A(C   8,C   5,H   9)          120.0528         0.367048   
     23. A(H   2,C   5,H   9)          117.4942         0.292602   
     24. A(H   2,C   5,C   8)          122.4530         0.367108   
     25. A(S   3,C   6,C   4)          117.6176         0.454032   
     26. A(C   4,C   6,H  10)          121.1631         0.367371   
     27. A(S   3,C   6,H  10)          121.2194         0.356463   
     28. A(C   5,C   8,H  11)          120.8510         0.367298   
     29. A(S   3,C   8,H  11)          121.5349         0.360025   
     30. A(S   3,C   8,C   5)          117.6141         0.458871   
     31. D(S   3,C   6,C   4,H   7)    179.9969         0.042121   
     32. D(H  10,C   6,S   3,O   0)   -114.6075         0.005553   
     33. D(H  10,C   6,C   4,H   7)     -0.0052         0.042121   
     34. D(H  10,C   6,C   4,H   1)    179.9937         0.042121   
     35. D(C   4,C   6,S   3,O  12)    -65.3554         0.005553   
     36. D(S   3,C   6,C   4,H   1)     -0.0042         0.042121   
     37. D(C   4,C   6,S   3,C   8)   -179.9997         0.005553   
     38. D(C   4,C   6,S   3,O   0)     65.3904         0.005553   
     39. D(H  10,C   6,S   3,C   8)      0.0024         0.005553   
     40. D(H  11,C   8,S   3,C   6)     -0.0079         0.006086   
     41. D(H  11,C   8,S   3,O   0)    113.9894         0.006086   
     42. D(C   5,C   8,S   3,O  12)     65.9826         0.006086   
     43. D(C   5,C   8,S   3,C   6)   -179.9954         0.006086   
     44. D(S   3,C   8,C   5,H   2)     -0.0124         0.042055   
     45. D(C   5,C   8,S   3,O   0)    -65.9981         0.006086   
     46. D(H  11,C   8,C   5,H   9)      0.0114         0.042055   
     47. D(H  11,C   8,C   5,H   2)   -180.0000         0.042055   
     48. D(S   3,C   8,C   5,H   9)    179.9990         0.042055   
    -----------------------------------------------------------------

Number of atoms                         .... 13
Number of degrees of freedom            .... 48


         *************************************************************
         *                GEOMETRY OPTIMIZATION CYCLE   1            *
         *************************************************************
---------------------------------
CARTESIAN COORDINATES (ANGSTROEM)
---------------------------------
  O      0.003400    0.994600   -1.258800
  H      2.735000    0.770400   -0.000900
  H     -2.741200    0.768900   -0.000600
  S     -0.007800    0.263200   -0.000200
  C      2.563900   -0.300600    0.000300
  C     -2.564800   -0.301300    0.000400
  C      1.338800   -0.829100    0.000900
  H      3.434800   -0.947500    0.001000
  C     -1.337300   -0.824700    0.001000
  H     -3.432900   -0.952000    0.001100
  H      1.191200   -1.902700    0.002000
  H     -1.191000   -1.898600    0.002000
  O      0.003700    0.998000    1.256400

----------------------------
CARTESIAN COORDINATES (A.U.)
----------------------------
  NO LB      ZA    FRAG     MASS         X           Y           Z
   0 O     8.0000    0    15.999    0.006425    1.879522   -2.378787
   1 H     1.0000    0     1.008    5.168401    1.455845   -0.001701
   2 H     1.0000    0     1.008   -5.180117    1.453010   -0.001134
   3 S    16.0000    0    32.060   -0.014740    0.497376   -0.000378
   4 C     6.0000    0    12.011    4.845069   -0.568052    0.000567
   5 C     6.0000    0    12.011   -4.846770   -0.569374    0.000756
   6 C     6.0000    0    12.011    2.529965   -1.566772    0.001701
   7 H     1.0000    0     1.008    6.490831   -1.790516    0.001890
   8 C     6.0000    0    12.011   -2.527131   -1.558457    0.001890
   9 H     1.0000    0     1.008   -6.487241   -1.799019    0.002079
  10 H     1.0000    0     1.008    2.251042   -3.595582    0.003779
  11 H     1.0000    0     1.008   -2.250664   -3.587834    0.003779
  12 O     8.0000    0    15.999    0.006992    1.885947    2.374252

--------------------------------
INTERNAL COORDINATES (ANGSTROEM)
--------------------------------
 O      0   0   0     0.000000000000     0.00000000     0.00000000
 H      1   0   0     3.015661885888     0.00000000     0.00000000
 H      1   2   0     3.027678465425   129.95835428     0.00000000
 S      1   2   3     1.455728463691    66.98191869   338.15960945
 C      2   1   3     1.084581785759    86.04224329    76.94347175
 C      3   1   2     1.084640954418    85.78539293   283.14578002
 C      5   2   1     1.334234844396   122.41176845   335.28896447
 H      5   2   1     1.084871840357   117.52808071   155.28788537
 C      6   3   1     1.334430279183   122.45301896    24.62719368
 H      6   3   1     1.084900267306   117.49422643   204.61607283
 H      7   5   2     1.083699187967   121.16308453   179.99365152
 H      9   6   3     1.083820049639   120.85095771   180.00002905
 O      4   1   2     1.455715236576   119.51514894    80.14696323

---------------------------
INTERNAL COORDINATES (A.U.)
---------------------------
 O      0   0   0     0.000000000000     0.00000000     0.00000000
 H      1   0   0     5.698775076834     0.00000000     0.00000000
 H      1   2   0     5.721483121225   129.95835428     0.00000000
 S      1   2   3     2.750928121730    66.98191869   338.15960945
 C      2   1   3     2.049562544924    86.04224329    76.94347175
 C      3   1   2     2.049674357484    85.78539293   283.14578002
 C      5   2   1     2.521338454243   122.41176845   335.28896447
 H      5   2   1     2.050110668678   117.52808071   155.28788537
 C      6   3   1     2.521707772468   122.45301896    24.62719368
 H      6   3   1     2.050164387826   117.49422643   204.61607283
 H      7   5   2     2.047894676810   121.16308453   179.99365152
 H      9   6   3     2.048123072271   120.85095771   180.00002905
 O      4   1   2     2.750903126105   119.51514894    80.14696323

---------------------
BASIS SET INFORMATION
---------------------
There are 4 groups of distinct atoms

 Group   1 Type O   : 12s6p1d contracted to 5s4p1d pattern {63111/3111/1}
 Group   2 Type H   : 6s1p contracted to 4s1p pattern {3111/1}
 Group   3 Type S   : 14s10p1d contracted to 7s6p1d pattern {6311111/421111/1}
 Group   4 Type C   : 12s6p1d contracted to 5s4p1d pattern {63111/3111/1}

Atom   0O    basis set group =>   1
Atom   1H    basis set group =>   2
Atom   2H    basis set group =>   2
Atom   3S    basis set group =>   3
Atom   4C    basis set group =>   4
Atom   5C    basis set group =>   4
Atom   6C    basis set group =>   4
Atom   7H    basis set group =>   2
Atom   8C    basis set group =>   4
Atom   9H    basis set group =>   2
Atom  10H    basis set group =>   2
Atom  11H    basis set group =>   2
Atom  12O    basis set group =>   1
---------------------------------
AUXILIARY/J BASIS SET INFORMATION
---------------------------------
There are 4 groups of distinct atoms

 Group   1 Type O   : 12s5p4d2f1g contracted to 6s4p3d1f1g pattern {711111/2111/211/2/1}
 Group   2 Type H   : 5s2p1d contracted to 3s1p1d pattern {311/2/1}
 Group   3 Type S   : 14s5p5d2f1g contracted to 8s4p3d1f1g pattern {71111111/2111/311/2/1}
 Group   4 Type C   : 12s5p4d2f1g contracted to 6s4p3d1f1g pattern {711111/2111/211/2/1}

Atom   0O    basis set group =>   1
Atom   1H    basis set group =>   2
Atom   2H    basis set group =>   2
Atom   3S    basis set group =>   3
Atom   4C    basis set group =>   4
Atom   5C    basis set group =>   4
Atom   6C    basis set group =>   4
Atom   7H    basis set group =>   2
Atom   8C    basis set group =>   4
Atom   9H    basis set group =>   2
Atom  10H    basis set group =>   2
Atom  11H    basis set group =>   2
Atom  12O    basis set group =>   1
--------------------------------------------------------------------------
WARNING: There was an error initializing an OpenFabrics device.

  Local host:   ga00
  Local device: mlx5_0
--------------------------------------------------------------------------


           ************************************************************
           *        Program running with 32 parallel MPI-processes    *
           *              working on a common directory               *
           ************************************************************
------------------------------------------------------------------------------
                             ORCA STARTUP CALCULATIONS
                           -- RI-GTO INTEGRALS CHOSEN --
------------------------------------------------------------------------------
------------------------------------------------------------------------------
                   ___                                                        
                  /   \      - P O W E R E D   B Y -                         
                 /     \                                                     
                 |  |  |   _    _      __       _____    __    __             
                 |  |  |  | |  | |    /  \     |  _  \  |  |  /  |          
                  \  \/   | |  | |   /    \    | | | |  |  | /  /          
                 / \  \   | |__| |  /  /\  \   | |_| |  |  |/  /          
                |  |  |   |  __  | /  /__\  \  |    /   |      \           
                |  |  |   | |  | | |   __   |  |    \   |  |\   \          
                \     /   | |  | | |  |  |  |  | |\  \  |  | \   \       
                 \___/    |_|  |_| |__|  |__|  |_| \__\ |__|  \__/        
                                                                              
                      - O R C A' S   B I G   F R I E N D -                    
                                      &                                       
                       - I N T E G R A L  F E E D E R -                       
                                                                              
 v1 FN, 2020, v2 2021, v3 2022-2024                                           
------------------------------------------------------------------------------


----------------------
SHARK INTEGRAL PACKAGE
----------------------

Number of atoms                             ...     13
Number of basis functions                   ...    204
Number of shells                            ...    104
Maximum angular momentum                    ...      2
Integral batch strategy                     ... SHARK/LIBINT Hybrid
RI-J (if used) integral strategy            ... SPLIT-RIJ (Revised 2003 algorithm where possible)
Printlevel                                  ...      1
Contraction scheme used                     ... SEGMENTED contraction
Prescreening option                         ... SCHWARTZ
   Thresh                                   ... 2.500e-11
   Tcut                                     ... 2.500e-12
   Tpresel                                  ... 2.500e-12 
Coulomb Range Separation                    ... NOT USED
Exchange Range Separation                   ... NOT USED
Multipole approximations                    ... NOT USED
Finite Nucleus Model                        ... NOT USED
CABS basis                                  ... NOT available
Auxiliary Coulomb fitting basis             ... AVAILABLE
   # of basis functions in Aux-J            ...    411
   # of shells in Aux-J                     ...    137
   Maximum angular momentum in Aux-J        ...      4
Auxiliary J/K fitting basis                 ... NOT available
Auxiliary Correlation fitting basis         ... NOT available
Auxiliary 'external' fitting basis          ... NOT available

Checking pre-screening integrals            ... done (  0.0 sec) Dimension = 104
Check shell pair data                       ... done (  0.0 sec)
Shell pair information
Shell pair cut-off parameter TPreSel        ...   2.5e-12
Total number of shell pairs                 ...      5460
Shell pairs after pre-screening             ...      5078
Total number of primitive shell pairs       ...     16640
Primitive shell pairs kept                  ...     11635
          la=0 lb=0:   1725 shell pairs
          la=1 lb=0:   2042 shell pairs
          la=1 lb=1:    632 shell pairs
          la=2 lb=0:    405 shell pairs
          la=2 lb=1:    246 shell pairs
          la=2 lb=2:     28 shell pairs

Calculating one electron integrals          ... done (  0.0 sec)
Calculating RI/J V-Matrix + Cholesky decomp.... done (  0.0 sec)
Calculating Nuclear repulsion               ... done (  0.0 sec) ENN=    394.928045771933 Eh

Diagonalization of the overlap matrix:
Smallest eigenvalue                        ... 7.545e-06
Time for diagonalization                   ...    0.003 sec
Threshold for overlap eigenvalues          ... 1.000e-07
Number of eigenvalues below threshold      ... 0
Time for construction of square roots      ...    0.002 sec
Total time needed                          ...    0.006 sec

-------------------
DFT GRID GENERATION
-------------------

General Integration Accuracy     IntAcc      ... 4.388
Radial Grid Type                 RadialGrid  ... OptM3 with GC (2021)
Angular Grid (max. ang.)         AngularGrid ... 4 (Lebedev-302)
Angular grid pruning method      GridPruning ... 4 (adaptive)
Weight generation scheme         WeightScheme... mBecke (2022)
Basis function cutoff            BFCut       ... 1.0000e-11
Integration weight cutoff        WCut        ... 1.0000e-14
Partially contracted basis set               ... off
Rotationally invariant grid construction     ... off
Angular grids for H and He will be reduced by one unit
Diffuse basis detected: some atoms will have their outermost
                        angular grid increased by 1.

Total number of grid points                  ...    66311
Total number of batches                      ...     1043
Average number of points per batch           ...       63
Average number of grid points per atom       ...     5101

--------------------
COSX GRID GENERATION
--------------------

GRIDX 1
-------
General Integration Accuracy     IntAcc      ... 3.816
Radial Grid Type                 RadialGrid  ... OptM3 with GC (2021)
Angular Grid (max. ang.)         AngularGrid ... 1 (Lebedev-50)
Angular grid pruning method      GridPruning ... 4 (adaptive)
Weight generation scheme         WeightScheme... mBecke (2022)
Basis function cutoff            BFCut       ... 1.0000e-11
Integration weight cutoff        WCut        ... 1.0000e-14
Partially contracted basis set               ... on
Rotationally invariant grid construction     ... off
Angular grids for H and He will be reduced by one unit
Diffuse basis detected: some atoms will have their outermost
                        angular grid increased by 1.

Total number of grid points                  ...     9520
Total number of batches                      ...       79
Average number of points per batch           ...      120
Average number of grid points per atom       ...      732
UseSFitting                                  ... on

GRIDX 2
-------
General Integration Accuracy     IntAcc      ... 4.020
Radial Grid Type                 RadialGrid  ... OptM3 with GC (2021)
Angular Grid (max. ang.)         AngularGrid ... 2 (Lebedev-110)
Angular grid pruning method      GridPruning ... 4 (adaptive)
Weight generation scheme         WeightScheme... mBecke (2022)
Basis function cutoff            BFCut       ... 1.0000e-11
Integration weight cutoff        WCut        ... 1.0000e-14
Partially contracted basis set               ... on
Rotationally invariant grid construction     ... off
Angular grids for H and He will be reduced by one unit
Diffuse basis detected: some atoms will have their outermost
                        angular grid increased by 1.

Total number of grid points                  ...    20333
Total number of batches                      ...      166
Average number of points per batch           ...      122
Average number of grid points per atom       ...     1564
UseSFitting                                  ... on

GRIDX 3
-------
General Integration Accuracy     IntAcc      ... 4.338
Radial Grid Type                 RadialGrid  ... OptM3 with GC (2021)
Angular Grid (max. ang.)         AngularGrid ... 3 (Lebedev-194)
Angular grid pruning method      GridPruning ... 4 (adaptive)
Weight generation scheme         WeightScheme... mBecke (2022)
Basis function cutoff            BFCut       ... 1.0000e-11
Integration weight cutoff        WCut        ... 1.0000e-14
Partially contracted basis set               ... on
Rotationally invariant grid construction     ... off
Angular grids for H and He will be reduced by one unit
Diffuse basis detected: some atoms will have their outermost
                        angular grid increased by 1.

Total number of grid points                  ...    45906
Total number of batches                      ...      368
Average number of points per batch           ...      124
Average number of grid points per atom       ...     3531
UseSFitting                                  ... on
Initializing property integral containers    ... done (  0.0 sec)

SHARK setup successfully completed in   0.6 seconds

Maximum memory used throughout the entire STARTUP-calculation: 21.8 MB
[ga00:125928] 31 more processes have sent help message help-mpi-btl-openib.txt / error in device init
[ga00:125928] Set MCA parameter "orte_base_help_aggregate" to 0 to see all help / error messages
--------------------------------------------------------------------------
WARNING: There was an error initializing an OpenFabrics device.

  Local host:   ga00
  Local device: mlx5_0
--------------------------------------------------------------------------


           ************************************************************
           *        Program running with 32 parallel MPI-processes    *
           *              working on a common directory               *
           ************************************************************
-------------------------------------------------------------------------------
                                 ORCA GUESS
                   Start orbitals & Density for SCF / CASSCF
-------------------------------------------------------------------------------

------------
SCF SETTINGS
------------
Hamiltonian:
 Density Functional     Method          .... DFT(GTOs)
 Exchange Functional    Exchange        .... B88
   X-Alpha parameter    XAlpha          ....  0.666667
   Becke's b parameter  XBeta           ....  0.004200
 Correlation Functional Correlation     .... LYP
 LDA part of GGA corr.  LDAOpt          .... VWN-5
 Gradients option       PostSCFGGA      .... off
 Hybrid DFT is turned on
   Fraction HF Exchange ScalHFX         ....  0.200000
   Scaling of DF-GGA-X  ScalDFX         ....  0.720000
   Scaling of DF-GGA-C  ScalDFC         ....  0.810000
   Scaling of DF-LDA-C  ScalLDAC        ....  1.000000
   Perturbative correction              ....  0.000000
   NL short-range parameter             ....  4.800000
 RI-approximation to the Coulomb term is turned on
   Number of AuxJ basis functions       .... 411
   RIJ-COSX (HFX calculated with COS-X)).... on


General Settings:
 Integral files         IntName         .... input
 Hartree-Fock type      HFTyp           .... RHF
 Total Charge           Charge          ....    0
 Multiplicity           Mult            ....    1
 Number of Electrons    NEL             ....   62
 Basis Dimension        Dim             ....  204
 Nuclear Repulsion      ENuc            ....    394.9280457719 Eh

Convergence Acceleration:
 AO-DIIS                CNVDIIS         .... on
   Start iteration      DIISMaxIt       ....    12
   Startup error        DIISStart       ....  0.200000
   # of expansion vecs  DIISMaxEq       ....     5
   Bias factor          DIISBfac        ....   1.050
   Max. coefficient     DIISMaxC        ....  10.000
 MO-DIIS                CNVKDIIS        .... off
 Trust-Rad. Augm. Hess. CNVTRAH         .... auto
   Auto Start mean grad. ratio tolernc. ....  1.125000
   Auto Start start iteration           ....    50
   Auto Start num. interpolation iter.  ....    10
   Max. Number of Micro iterations      ....    24
   Max. Number of Macro iterations      .... Maxiter - #DIIS iter
   Number of Davidson start vectors     ....     2
   Converg. threshold    (grad. norm)   ....   1.000e-05
   Grad. Scal. Fac. for Micro threshold ....   0.100
   Minimum threshold for Micro iter.    ....   1.000e-02
   NR start threshold (gradient norm)   ....   1.000e-04
   Initial trust radius                 ....   0.400
   Minimum AH scaling param. (alpha)    ....   1.000
   Maximum AH scaling param. (alpha)    .... 1000.000
   Quad. conv. algorithm                .... NR
   White noise on init. David. guess    .... on
   Maximum white noise                  ....   0.010
   Pseudo random numbers                .... off
   Inactive MOs                         .... canonical
   Orbital update algorithm             .... Taylor
   Preconditioner                       .... Diag
   Full preconditioner red. dimension   ....   250
 SOSCF                  CNVSOSCF        .... on
   Start iteration      SOSCFMaxIt      ....   150
   Startup grad/error   SOSCFStart      ....  0.003300
   Hessian update       SOSCFHessUp     .... L-BFGS
 Level Shifting         CNVShift        .... on
   Level shift para.    LevelShift      ....    0.2500
   Turn off err/grad.   ShiftErr        ....    0.0010
 Zerner damping         CNVZerner       .... off
 Static damping         CNVDamp         .... on
   Fraction old density DampFac         ....    0.7000
   Max. Damping (<1)    DampMax         ....    0.9800
   Min. Damping (>=0)   DampMin         ....    0.0000
   Turn off err/grad.   DampErr         ....    0.1000

SCF Procedure:
 Maximum # iterations   MaxIter         ....   125
 SCF integral mode      SCFMode         .... Direct
   Integral package                     .... SHARK and LIBINT hybrid scheme
 Reset frequency        DirectResetFreq ....    20
 Integral Threshold     Thresh          ....  2.500e-11 Eh
 Primitive CutOff       TCut            ....  2.500e-12 Eh

Convergence Tolerance:
 Convergence Check Mode ConvCheckMode   .... Total+1el-Energy
 Convergence forced     ConvForced      .... 0
 Energy Change          TolE            ....  1.000e-08 Eh
 1-El. energy change                    ....  1.000e-05 Eh
 Orbital Gradient       TolG            ....  1.000e-05
 Orbital Rotation angle TolX            ....  1.000e-05
 DIIS Error             TolErr          ....  5.000e-07

------------------------------
INITIAL GUESS: MODEL POTENTIAL
------------------------------
Loading Hartree-Fock densities                     ... done
Calculating cut-offs                               ... done
Initializing the effective Hamiltonian             ... done
Setting up the integral package (SHARK)            ... done
Starting the Coulomb interaction                   ... done (   0.0 sec)
Making the grid                                    ... done (   0.1 sec)
Mapping shells                                     ... done
Starting the XC term evaluation                    ... done (   0.0 sec)
  promolecular density results
     # of electrons  =     61.999810026
     EX              =    -63.830995613
     EC              =     -2.231840076
     EX+EC           =    -66.062835689
Transforming the Hamiltonian                       ... done (   0.0 sec)
Diagonalizing the Hamiltonian                      ... done (   0.0 sec)
Back transforming the eigenvectors                 ... done (   0.0 sec)
Now organizing SCF variables                       ... done
                      ------------------
                      INITIAL GUESS DONE (   0.1 sec)
                      ------------------
             **** ENERGY FILE WAS UPDATED (input.en.tmp) ****
Finished Guess after   0.9 sec
Maximum memory used throughout the entire GUESS-calculation: 14.3 MB
[ga00:126080] 31 more processes have sent help message help-mpi-btl-openib.txt / error in device init
[ga00:126080] Set MCA parameter "orte_base_help_aggregate" to 0 to see all help / error messages
--------------------------------------------------------------------------
WARNING: There was an error initializing an OpenFabrics device.

  Local host:   ga00
  Local device: mlx5_0
--------------------------------------------------------------------------


           ************************************************************
           *        Program running with 32 parallel MPI-processes    *
           *              working on a common directory               *
           ************************************************************

-------------------------------------------------------------------------------------------
                                      ORCA LEAN-SCF
                              memory conserving SCF solver
-------------------------------------------------------------------------------------------

----------------------------------------D-I-I-S--------------------------------------------
Iteration    Energy (Eh)           Delta-E    RMSDP     MaxDP     DIISErr   Damp  Time(sec)
-------------------------------------------------------------------------------------------
               ***  Starting incremental Fock matrix formation  ***
    1    -704.0451798236781542     0.00e+00  1.18e-02  6.61e-01  3.54e-01  0.700   0.2
    2    -704.2294896463572513    -1.84e-01  6.69e-03  3.37e-01  1.20e-01  0.700   0.2
                               ***Turning on AO-DIIS***
    3    -704.2871303580413951    -5.76e-02  1.67e-03  3.78e-02  4.42e-02  0.700   0.2
    4    -704.3267516878381684    -3.96e-02  2.80e-03  1.08e-01  2.05e-02  0.000   0.2
    5    -704.4167768776228513    -9.00e-02  1.09e-03  4.89e-02  9.94e-03  0.000   0.2
                              *** Initializing SOSCF ***
---------------------------------------S-O-S-C-F--------------------------------------
Iteration    Energy (Eh)           Delta-E    RMSDP     MaxDP     MaxGrad    Time(sec)
--------------------------------------------------------------------------------------
    6    -704.4173698069566854    -5.93e-04  3.62e-04  1.49e-02  1.54e-03     0.2
               *** Restarting incremental Fock matrix formation ***
    7    -704.4174625098298748    -9.27e-05  2.17e-04  9.14e-03  3.48e-04     0.2
    8    -704.4174589825831845     3.53e-06  5.79e-05  2.07e-03  6.15e-04     0.2
    9    -704.4174676802333579    -8.70e-06  4.15e-05  1.60e-03  8.81e-05     0.2
   10    -704.4174675163294523     1.64e-07  2.42e-05  1.11e-03  9.95e-05     0.2
   11    -704.4174679546420066    -4.38e-07  1.36e-05  5.29e-04  2.18e-05     0.2
   12    -704.4174679307379847     2.39e-08  1.15e-05  5.14e-04  3.59e-05     0.2
   13    -704.4174679762761571    -4.55e-08  3.19e-05  1.78e-03  1.68e-06     0.2
                  *** Gradient check signals convergence ***

               *****************************************************
               *                     SUCCESS                       *
               *           SCF CONVERGED AFTER  13 CYCLES          *
               *****************************************************

Recomputing exchange energy using gridx3       ... done (    0.305 sec)
Old exchange energy                            :    -12.878921252 Eh
New exchange energy                            :    -12.878876818 Eh
Exchange energy change after final integration :      0.000044434 Eh
Total energy after final integration           :   -704.417423542 Eh
             **** ENERGY FILE WAS UPDATED (input.en.tmp) ****

----------------
TOTAL SCF ENERGY
----------------

Total Energy       :       -704.41742354230644 Eh          -19168.17259 eV

Components:
Nuclear Repulsion  :        394.92804577193328 Eh           10746.53847 eV
Electronic Energy  :      -1099.34551374820944 Eh          -29914.71226 eV
One Electron Energy:      -1749.35308311461404 Eh          -47602.31745 eV
Two Electron Energy:        650.00756936640460 Eh           17687.60518 eV

Virial components:
Potential Energy   :      -1407.59086293837709 Eh          -38302.49464 eV
Kinetic Energy     :        703.17343939607065 Eh           19134.32206 eV
Virial Ratio       :          2.00176910002076

DFT components:
N(Alpha)           :       30.999944567406 electrons
N(Beta)            :       30.999944567406 electrons
N(Total)           :       61.999889134812 electrons
E(X)               :      -51.222330921166 Eh       
E(C)               :       -2.628344485775 Eh       
E(XC)              :      -53.850675406941 Eh       

---------------
SCF CONVERGENCE
---------------

  Last Energy change         ...    4.5538e-08  Tolerance :   1.0000e-08
  Last MAX-Density change    ...    1.7776e-03  Tolerance :   1.0000e-07
  Last RMS-Density change    ...    3.1943e-05  Tolerance :   5.0000e-09
  Last DIIS Error            ...    1.5419e-03  Tolerance :   5.0000e-07
  Last Orbital Gradient      ...    1.6815e-06  Tolerance :   1.0000e-05
  Last Orbital Rotation      ...    2.1763e-06  Tolerance :   1.0000e-05


----------------
ORBITAL ENERGIES
----------------

  NO   OCC          E(Eh)            E(eV) 
   0   2.0000     -89.052531     -2423.2426 
   1   2.0000     -19.114176      -520.1232 
   2   2.0000     -19.114137      -520.1221 
   3   2.0000     -10.219507      -278.0869 
   4   2.0000     -10.217921      -278.0438 
   5   2.0000     -10.212168      -277.8872 
   6   2.0000     -10.209630      -277.8181 
   7   2.0000      -8.118007      -220.9022 
   8   2.0000      -6.080426      -165.4568 
   9   2.0000      -6.079748      -165.4383 
  10   2.0000      -6.079445      -165.4301 
  11   2.0000      -1.122461       -30.5437 
  12   2.0000      -1.010904       -27.5081 
  13   2.0000      -0.839893       -22.8546 
  14   2.0000      -0.816741       -22.2247 
  15   2.0000      -0.713852       -19.4249 
  16   2.0000      -0.619521       -16.8580 
  17   2.0000      -0.582107       -15.8399 
  18   2.0000      -0.555070       -15.1042 
  19   2.0000      -0.495560       -13.4849 
  20   2.0000      -0.489067       -13.3082 
  21   2.0000      -0.460659       -12.5352 
  22   2.0000      -0.448687       -12.2094 
  23   2.0000      -0.430245       -11.7076 
  24   2.0000      -0.419743       -11.4218 
  25   2.0000      -0.358073        -9.7436 
  26   2.0000      -0.345905        -9.4126 
  27   2.0000      -0.337589        -9.1863 
  28   2.0000      -0.309275        -8.4158 
  29   2.0000      -0.288331        -7.8459 
  30   2.0000      -0.287364        -7.8196 
  31   0.0000      -0.071824        -1.9544 
  32   0.0000      -0.033788        -0.9194 
  33   0.0000      -0.021099        -0.5741 
  34   0.0000       0.000914         0.0249 
  35   0.0000       0.012230         0.3328 
  36   0.0000       0.029491         0.8025 
  37   0.0000       0.032757         0.8914 
  38   0.0000       0.052806         1.4369 
  39   0.0000       0.052907         1.4397 
  40   0.0000       0.055179         1.5015 
  41   0.0000       0.067823         1.8456 
*Only the first 10 virtual orbitals were printed.

                    ********************************
                    * MULLIKEN POPULATION ANALYSIS *
                    ********************************

-----------------------
MULLIKEN ATOMIC CHARGES
-----------------------
   0 O :   -0.220905
   1 H :    0.197283
   2 H :    0.197250
   3 S :    0.334754
   4 C :   -0.353929
   5 C :   -0.359700
   6 C :   -0.155261
   7 H :    0.147902
   8 C :   -0.152167
   9 H :    0.148725
  10 H :    0.217497
  11 H :    0.219213
  12 O :   -0.220661
Sum of atomic charges:   -0.0000000

--------------------------------
MULLIKEN REDUCED ORBITAL CHARGES
--------------------------------
  0 O s       :     3.779208  s :     3.779208
      pz      :     1.256806  p :     4.425560
      px      :     1.675837
      py      :     1.492918
      dz2     :     0.005377  d :     0.016137
      dxz     :     0.003107
      dyz     :     0.005324
      dx2y2   :     0.001250
      dxy     :     0.001078

  1 H s       :     0.777182  s :     0.777182
      pz      :     0.005343  p :     0.025535
      px      :     0.005059
      py      :     0.015134

  2 H s       :     0.777229  s :     0.777229
      pz      :     0.005314  p :     0.025522
      px      :     0.005084
      py      :     0.015123

  3 S s       :     5.447413  s :     5.447413
      pz      :     3.079450  p :     9.611751
      px      :     3.327245
      py      :     3.205056
      dz2     :     0.179351  d :     0.606083
      dxz     :     0.108474
      dyz     :     0.147526
      dx2y2   :     0.031332
      dxy     :     0.139401

  4 C s       :     3.358339  s :     3.358339
      pz      :     0.892021  p :     2.953335
      px      :     0.976820
      py      :     1.084495
      dz2     :     0.003557  d :     0.042254
      dxz     :     0.007572
      dyz     :     0.001530
      dx2y2   :     0.015429
      dxy     :     0.014166

  5 C s       :     3.365103  s :     3.365103
      pz      :     0.887813  p :     2.952291
      px      :     0.981022
      py      :     1.083456
      dz2     :     0.003563  d :     0.042306
      dxz     :     0.007651
      dyz     :     0.001491
      dx2y2   :     0.015350
      dxy     :     0.014251

  6 C s       :     3.034997  s :     3.034997
      pz      :     1.062946  p :     3.071376
      px      :     0.985514
      py      :     1.022917
      dz2     :     0.004482  d :     0.048889
      dxz     :     0.005614
      dyz     :     0.003230
      dx2y2   :     0.014285
      dxy     :     0.021278

  7 H s       :     0.826703  s :     0.826703
      pz      :     0.005696  p :     0.025395
      px      :     0.011505
      py      :     0.008193

  8 C s       :     3.026199  s :     3.026199
      pz      :     1.064920  p :     3.076747
      px      :     0.992079
      py      :     1.019747
      dz2     :     0.004548  d :     0.049222
      dxz     :     0.005527
      dyz     :     0.003332
      dx2y2   :     0.014119
      dxy     :     0.021696

  9 H s       :     0.825904  s :     0.825904
      pz      :     0.005656  p :     0.025371
      px      :     0.011479
      py      :     0.008236

 10 H s       :     0.756073  s :     0.756073
      pz      :     0.006556  p :     0.026430
      px      :     0.004339
      py      :     0.015536

 11 H s       :     0.754294  s :     0.754294
      pz      :     0.006551  p :     0.026492
      px      :     0.004343
      py      :     0.015599

 12 O s       :     3.779014  s :     3.779014
      pz      :     1.257872  p :     4.425509
      px      :     1.675734
      py      :     1.491904
      dz2     :     0.005357  d :     0.016138
      dxz     :     0.003098
      dyz     :     0.005333
      dx2y2   :     0.001262
      dxy     :     0.001088



                     *******************************
                     * LOEWDIN POPULATION ANALYSIS *
                     *******************************

----------------------
LOEWDIN ATOMIC CHARGES
----------------------
   0 O :   -0.595754
   1 H :    0.061996
   2 H :    0.062193
   3 S :    1.339528
   4 C :    0.014327
   5 C :    0.017771
   6 C :   -0.259977
   7 H :    0.048595
   8 C :   -0.264608
   9 H :    0.049005
  10 H :    0.060410
  11 H :    0.062223
  12 O :   -0.595708

-------------------------------
LOEWDIN REDUCED ORBITAL CHARGES
-------------------------------
  0 O s       :     3.675905  s :     3.675905
      pz      :     1.499320  p :     4.894033
      px      :     1.750030
      py      :     1.644683
      dz2     :     0.008954  d :     0.025816
      dxz     :     0.003821
      dyz     :     0.009876
      dx2y2   :     0.001827
      dxy     :     0.001338

  1 H s       :     0.866211  s :     0.866211
      pz      :     0.012446  p :     0.071793
      px      :     0.012288
      py      :     0.047059

  2 H s       :     0.865990  s :     0.865990
      pz      :     0.012387  p :     0.071817
      px      :     0.012371
      py      :     0.047059

  3 S s       :     4.888944  s :     4.888944
      pz      :     2.980618  p :     9.043244
      px      :     3.059586
      py      :     3.003040
      dz2     :     0.220794  d :     0.728285
      dxz     :     0.114993
      dyz     :     0.183940
      dx2y2   :     0.034378
      dxy     :     0.174180

  4 C s       :     2.818304  s :     2.818304
      pz      :     0.877747  p :     3.071660
      px      :     1.111578
      py      :     1.082335
      dz2     :     0.006194  d :     0.095710
      dxz     :     0.013705
      dyz     :     0.002814
      dx2y2   :     0.037630
      dxy     :     0.035366

  5 C s       :     2.818338  s :     2.818338
      pz      :     0.874067  p :     3.068055
      px      :     1.111602
      py      :     1.082386
      dz2     :     0.006203  d :     0.095836
      dxz     :     0.013853
      dyz     :     0.002750
      dx2y2   :     0.037518
      dxy     :     0.035513

  6 C s       :     2.873359  s :     2.873359
      pz      :     1.030852  p :     3.268657
      px      :     1.152136
      py      :     1.085669
      dz2     :     0.010200  d :     0.117960
      dxz     :     0.013387
      dyz     :     0.005339
      dx2y2   :     0.037630
      dxy     :     0.051404

  7 H s       :     0.880331  s :     0.880331
      pz      :     0.013485  p :     0.071074
      px      :     0.032664
      py      :     0.024926

  8 C s       :     2.870878  s :     2.870878
      pz      :     1.033131  p :     3.274368
      px      :     1.154039
      py      :     1.087198
      dz2     :     0.010396  d :     0.119361
      dxz     :     0.013458
      dyz     :     0.005533
      dx2y2   :     0.037658
      dxy     :     0.052317

  9 H s       :     0.879932  s :     0.879932
      pz      :     0.013402  p :     0.071063
      px      :     0.032575
      py      :     0.025086

 10 H s       :     0.861829  s :     0.861829
      pz      :     0.016218  p :     0.077760
      px      :     0.012853
      py      :     0.048690

 11 H s       :     0.860089  s :     0.860089
      pz      :     0.016214  p :     0.077689
      px      :     0.012793
      py      :     0.048681

 12 O s       :     3.675906  s :     3.675906
      pz      :     1.500001  p :     4.893985
      px      :     1.749967
      py      :     1.644017
      dz2     :     0.008904  d :     0.025817
      dxz     :     0.003811
      dyz     :     0.009907
      dx2y2   :     0.001847
      dxy     :     0.001349



                      *****************************
                      * MAYER POPULATION ANALYSIS *
                      *****************************

  NA   - Mulliken gross atomic population
  ZA   - Total nuclear charge
  QA   - Mulliken gross atomic charge
  VA   - Mayer's total valence
  BVA  - Mayer's bonded valence
  FA   - Mayer's free valence

  ATOM       NA         ZA         QA         VA         BVA        FA
  0 O      8.2209     8.0000    -0.2209     1.6506     1.6506    -0.0000
  1 H      0.8027     1.0000     0.1973     0.9036     0.9036     0.0000
  2 H      0.8028     1.0000     0.1972     0.9045     0.9045    -0.0000
  3 S     15.6652    16.0000     0.3348     6.0893     6.0893    -0.0000
  4 C      6.3539     6.0000    -0.3539     3.7624     3.7624     0.0000
  5 C      6.3597     6.0000    -0.3597     3.7652     3.7652    -0.0000
  6 C      6.1553     6.0000    -0.1553     3.6588     3.6588    -0.0000
  7 H      0.8521     1.0000     0.1479     0.9498     0.9498     0.0000
  8 C      6.1522     6.0000    -0.1522     3.6343     3.6343    -0.0000
  9 H      0.8513     1.0000     0.1487     0.9500     0.9500    -0.0000
 10 H      0.7825     1.0000     0.2175     0.8918     0.8918    -0.0000
 11 H      0.7808     1.0000     0.2192     0.8918     0.8918    -0.0000
 12 O      8.2207     8.0000    -0.2207     1.6506     1.6506    -0.0000

  Mayer bond orders larger than 0.100000
B(  0-O ,  3-S ) :   2.0832 B(  0-O , 12-O ) :  -0.2179 B(  1-H ,  4-C ) :   0.9172 
B(  2-H ,  5-C ) :   0.9184 B(  3-S ,  6-C ) :   0.9494 B(  3-S ,  8-C ) :   0.9455 
B(  3-S , 12-O ) :   2.0830 B(  4-C ,  6-C ) :   1.8897 B(  4-C ,  7-H ) :   0.9688 
B(  5-C ,  8-C ) :   1.8810 B(  5-C ,  9-H ) :   0.9663 B(  6-C , 10-H ) :   0.8544 
B(  8-C , 11-H ) :   0.8567 

-------
TIMINGS
-------

Total SCF time: 0 days 0 hours 0 min 3 sec 

Total time                  ....       3.758 sec
Sum of individual times     ....       3.728 sec  ( 99.2%)

SCF preparation             ....       0.869 sec  ( 23.1%)
Fock matrix formation       ....       2.587 sec  ( 68.8%)
  Startup                   ....       0.012 sec  (  0.4% of F)
  Split-RI-J                ....       0.270 sec  ( 10.4% of F)
  Chain of spheres X        ....       1.762 sec  ( 68.1% of F)
  XC integration            ....       0.489 sec  ( 18.9% of F)
    XC Preparation          ....       0.000 sec  (  0.0% of XC)
    Basis function eval.    ....       0.088 sec  ( 18.0% of XC)
    Density eval.           ....       0.070 sec  ( 14.4% of XC)
    XC-Functional eval.     ....       0.016 sec  (  3.3% of XC)
    XC-Potential eval.      ....       0.084 sec  ( 17.1% of XC)
Diagonalization             ....       0.000 sec  (  0.0%)
Density matrix formation    ....       0.031 sec  (  0.8%)
Total Energy calculation    ....       0.025 sec  (  0.7%)
Population analysis         ....       0.013 sec  (  0.4%)
Orbital Transformation      ....       0.023 sec  (  0.6%)
Orbital Orthonormalization  ....       0.000 sec  (  0.0%)
DIIS solution               ....       0.110 sec  (  2.9%)
SOSCF solution              ....       0.069 sec  (  1.8%)
Finished LeanSCF after   3.8 sec

Maximum memory used throughout the entire LEANSCF-calculation: 22.4 MB
[ga00:126225] 31 more processes have sent help message help-mpi-btl-openib.txt / error in device init
[ga00:126225] Set MCA parameter "orte_base_help_aggregate" to 0 to see all help / error messages


-------------------------------------------------------------------------------
                          DFT DISPERSION CORRECTION                            
                                                                               
                              DFTD3 V3.1  Rev 1                                
                          USING Becke-Johnson damping                          
-------------------------------------------------------------------------------
The B3LYP functional is recognized
Active option DFTDOPT                   ...         4   

molecular C6(AA) [au] = 2388.896088 


            DFT-D V3
 parameters
 s6 scaling factor         :     1.0000 
 a1 scaling factor         :     0.3981 
 s8 scaling factor         :     1.9889 
 a2 scaling factor         :     4.4211 
 ad hoc parameters k1-k3   :    16.0000     1.3333    -4.0000 

 Edisp/kcal,au: -14.400802530725  -0.022949137168 
 E6   /kcal   :  -6.442027740 
 E8   /kcal   :  -7.958774791 
 % E8         :  55.266189324 

-------------------------   ----------------
Dispersion correction           -0.022949137
-------------------------   ----------------


-------------------------   --------------------
FINAL SINGLE POINT ENERGY      -704.440372679475
-------------------------   --------------------

--------------------------------------------------------------------------
WARNING: There was an error initializing an OpenFabrics device.

  Local host:   ga00
  Local device: mlx5_0
--------------------------------------------------------------------------


           ************************************************************
           *        Program running with 32 parallel MPI-processes    *
           *              working on a common directory               *
           ************************************************************
------------------------------------------------------------------------------
                         ORCA SCF GRADIENT CALCULATION
------------------------------------------------------------------------------

Nuc. rep. gradient        (SHARK) ... done (  0.0 sec)
HCore & Overlap gradient  (SHARK) ... done (  0.0 sec)
Split-RIJ-J gradient      (SHARK) ... done (  0.1 sec)
COSX-gradient                     ... done (  1.0 sec)
XC gradient                       ... done (  0.2 sec)
Dispersion correction             ... done (  0.1 sec)

-------------------
DISPERSION GRADIENT
-------------------

   1   O   :    0.000000506    0.000401022   -0.000415229
   2   H   :    0.000333809    0.000077989   -0.000000093
   3   H   :   -0.000332259    0.000076895   -0.000000053
   4   S   :   -0.000012724    0.000252559   -0.000000251
   5   C   :    0.000613077   -0.000097112    0.000000104
   6   C   :   -0.000602036   -0.000094919    0.000000130
   7   C   :    0.000424901   -0.000161790    0.000000162
   8   H   :    0.000251671   -0.000065428    0.000000067
   9   C   :   -0.000425813   -0.000160592    0.000000173
  10   H   :   -0.000252262   -0.000066108    0.000000080
  11   H   :    0.000170237   -0.000283486    0.000000308
  12   H   :   -0.000169700   -0.000281166    0.000000311
  13   O   :    0.000000593    0.000402136    0.000414289

Difference to translation invariance:
           :    0.0000000000    0.0000000000   -0.0000000000

Difference to rotation invariance:
           :    0.0000000000    0.0000000000   -0.0000000000

Norm of the Dispersion gradient    ...    0.0015772595
RMS gradient                       ...    0.0002525637
MAX gradient                       ...    0.0006130768

------------------
CARTESIAN GRADIENT
------------------

   1   O   :    0.001501077   -0.010371216    0.009988064
   2   H   :    0.000607229    0.000320144   -0.000005415
   3   H   :   -0.000612884    0.000338580    0.000002093
   4   S   :   -0.009806771   -0.005875251    0.000055187
   5   C   :    0.002028637    0.006680969   -0.000006287
   6   C   :   -0.001097780    0.006622727   -0.000024754
   7   C   :   -0.035804483    0.007288925   -0.000027066
   8   H   :    0.000055398   -0.001248912    0.000006513
   9   C   :    0.042237849    0.010765240   -0.000032772
  10   H   :   -0.000074168   -0.001314602    0.000008580
  11   H   :    0.005378067   -0.001263589   -0.000001614
  12   H   :   -0.005923497   -0.001582274   -0.000001646
  13   O   :    0.001511325   -0.010360740   -0.009960882

Difference to translation invariance:
           :    0.0000000000    0.0000000000   -0.0000000000

Difference to rotation invariance:
           :    0.0000065677   -0.0000074047    0.0000120114

Norm of the Cartesian gradient     ...    0.0628516006
RMS gradient                       ...    0.0100643108
MAX gradient                       ...    0.0422378489

-------
TIMINGS
-------

Total SCF gradient time     ....        1.407 sec

Densities                   ....       0.001 sec  (  0.1%)
One electron gradient       ....       0.020 sec  (  1.4%)
RI-J Coulomb gradient       ....       0.107 sec  (  7.6%)
COSX gradient               ....       1.027 sec  ( 73.0%)
XC gradient                 ....       0.192 sec  ( 13.7%)

Maximum memory used throughout the entire SCFGRAD-calculation: 32.2 MB
[ga00:126394] 31 more processes have sent help message help-mpi-btl-openib.txt / error in device init
[ga00:126394] Set MCA parameter "orte_base_help_aggregate" to 0 to see all help / error messages
------------------------------------------------------------------------------
                         ORCA GEOMETRY RELAXATION STEP
------------------------------------------------------------------------------

Reading the OPT-File                    .... done
Getting information on internals        .... done
Copying old internal coords+grads       .... done
Making the new internal coordinates     .... (2022 redundants) done
Validating the new internal coordinates .... (2022 redundants) done
Calculating the B-matrix                .... done
Calculating the G,G- and P matrices     .... done
Transforming gradient to internals      .... done
Projecting the internal gradient        .... done
Number of atoms                         ....  13
Number of internal coordinates          ....  48
Current Energy                          ....  -704.440372679 Eh
Current gradient norm                   ....     0.062851601 Eh/bohr
Maximum allowed component of the step   ....  0.300
Current trust radius                    ....  0.300
Evaluating the initial hessian          ....  (Almloef) done
Projecting the Hessian                  .... done
Forming the augmented Hessian           .... done
Diagonalizing the augmented Hessian     .... done
Last element of RFO vector              ....  0.993485835
Lowest eigenvalues of augmented Hessian:
 -0.006168652  0.005553109  0.006086045  0.022128988  0.022271947
Length of the computed step             ....  0.114702870
The final length of the internal step   ....  0.114702870
Converting the step to Cartesian space:
 Initial RMS(Int)=    0.0165559332
Transforming coordinates:
 Iter   0:  RMS(Cart)=    0.0399949697 RMS(Int)=    1.2823598607
done
Storing new coordinates                 .... done

                                .--------------------.
          ----------------------|Geometry convergence|-------------------------
          Item                value                   Tolerance       Converged
          ---------------------------------------------------------------------
          RMS gradient        0.0080641168            0.0001000000      NO
          MAX gradient        0.0361150411            0.0003000000      NO
          RMS step            0.0165559332            0.0020000000      NO
          MAX step            0.0706342902            0.0040000000      NO
          ........................................................
          Max(Bonds)      0.0374      Max(Angles)    1.61
          Max(Dihed)        1.01      Max(Improp)    0.00
          ---------------------------------------------------------------------

The optimization has not yet converged - more geometry cycles are needed


    ---------------------------------------------------------------------------
                         Redundant Internal Coordinates
                            (Angstroem and degrees)

        Definition                    Value    dE/dq     Step     New-Value
    ----------------------------------------------------------------------------
     1. B(S   3,O   0)                1.4557 -0.013835  0.0061    1.4619   
     2. B(C   4,H   1)                1.0846  0.000412 -0.0006    1.0840   
     3. B(C   5,H   2)                1.0846  0.000434 -0.0006    1.0840   
     4. B(C   6,C   4)                1.3342  0.004749 -0.0033    1.3310   
     5. B(C   6,S   3)                1.7339 -0.028959  0.0318    1.7657   
     6. B(H   7,C   4)                1.0849  0.000789 -0.0011    1.0838   
     7. B(C   8,S   3)                1.7179 -0.036115  0.0374    1.7553   
     8. B(C   8,C   5)                1.3344  0.003857 -0.0026    1.3318   
     9. B(H   9,C   5)                1.0849  0.000848 -0.0012    1.0837   
    10. B(H  10,C   6)                1.0837  0.000519 -0.0007    1.0830   
    11. B(H  11,C   8)                1.0838  0.000768 -0.0011    1.0827   
    12. B(O  12,S   3)                1.4557 -0.013816  0.0061    1.4619   
    13. A(O   0,S   3,C   6)          108.12 -0.000580    0.30    108.42   
    14. A(C   6,S   3,C   8)          101.66 -0.008048    1.37    103.03   
    15. A(O   0,S   3,C   8)          108.95  0.002223   -0.29    108.66   
    16. A(C   6,S   3,O  12)          108.14 -0.001788    0.30    108.44   
    17. A(O   0,S   3,O  12)          119.52  0.004371   -0.97    118.54   
    18. A(C   8,S   3,O  12)          108.98  0.001664   -0.30    108.68   
    19. A(C   6,C   4,H   7)          120.06 -0.001701    0.26    120.32   
    20. A(H   1,C   4,H   7)          117.53  0.000288   -0.05    117.48   
    21. A(H   1,C   4,C   6)          122.41  0.001413   -0.21    122.20   
    22. A(C   8,C   5,H   9)          120.05 -0.001752    0.27    120.33   
    23. A(H   2,C   5,H   9)          117.49  0.000313   -0.06    117.44   
    24. A(H   2,C   5,C   8)          122.45  0.001439   -0.22    122.24   
    25. A(S   3,C   6,C   4)          117.62 -0.008763    1.18    118.79   
    26. A(C   4,C   6,H  10)          121.16 -0.001250    0.30    121.46   
    27. A(S   3,C   6,H  10)          121.22  0.010013   -1.47    119.75   
    28. A(C   5,C   8,H  11)          120.85 -0.001438    0.34    121.19   
    29. A(S   3,C   8,H  11)          121.53  0.011020   -1.61    119.93   
    30. A(S   3,C   8,C   5)          117.61 -0.009582    1.27    118.89   
    31. D(S   3,C   6,C   4,H   7)    180.00 -0.000294    0.03    180.03   
    32. D(H  10,C   6,S   3,O   0)   -114.61  0.000983   -0.29   -114.90   
    33. D(H  10,C   6,C   4,H   7)     -0.01  0.000285   -0.02     -0.02   
    34. D(H  10,C   6,C   4,H   1)    179.99  0.000284   -0.02    179.98   
    35. D(C   4,C   6,S   3,O  12)    -65.36 -0.002307    0.47    -64.89   
    36. D(S   3,C   6,C   4,H   1)     -0.00 -0.000294    0.03      0.03   
    37. D(C   4,C   6,S   3,C   8)   -180.00  0.000169    0.07   -179.93   
    38. D(C   4,C   6,S   3,O   0)     65.39  0.001561   -0.34     65.05   
    39. D(H  10,C   6,S   3,C   8)      0.00 -0.000409    0.11      0.12   
    40. D(H  11,C   8,S   3,C   6)     -0.01  0.001161   -0.24     -0.24   
    41. D(H  11,C   8,S   3,O   0)    113.99 -0.002412    0.63    114.62   
    42. D(C   5,C   8,S   3,O  12)     65.98  0.005041   -1.01     64.98   
    43. D(C   5,C   8,S   3,C   6)   -180.00 -0.000106   -0.14   -180.13   
    44. D(S   3,C   8,C   5,H   2)     -0.01  0.000627   -0.05     -0.06   
    45. D(C   5,C   8,S   3,O   0)    -66.00 -0.003679    0.73    -65.27   
    46. D(H  11,C   8,C   5,H   9)      0.01 -0.000623    0.04      0.05   
    47. D(H  11,C   8,C   5,H   2)   -180.00 -0.000632    0.05   -179.95   
    48. D(S   3,C   8,C   5,H   9)    180.00  0.000636   -0.06    179.94   
    ----------------------------------------------------------------------------

Geometry step timings:
Preparation and reading OPT file:      0.000 s (10.685 %)
Internal coordinates            :      0.000 s ( 2.284 %)
B/P matrices and projection     :      0.000 s (27.243 %)
Hessian update/contruction      :      0.000 s ( 7.993 %)
Making the step                 :      0.000 s (19.739 %)
Converting the step to Cartesian:      0.000 s ( 3.752 %)
Storing new data                :      0.000 s ( 1.468 %)
Checking convergence            :      0.000 s ( 0.163 %)
Final printing                  :      0.000 s (26.101 %)
Total time                      :      0.001 s
--------------------------------------------------------------------------
WARNING: There was an error initializing an OpenFabrics device.

  Local host:   ga00
  Local device: mlx5_0
--------------------------------------------------------------------------
[ga00:126544] 31 more processes have sent help message help-mpi-btl-openib.txt / error in device init
[ga00:126544] Set MCA parameter "orte_base_help_aggregate" to 0 to see all help / error messages

Time for energy+gradient        :      9.994 s
Time for complete geometry iter :     11.165 s

         *************************************************************
         *                GEOMETRY OPTIMIZATION CYCLE   2            *
         *************************************************************
---------------------------------
CARTESIAN COORDINATES (ANGSTROEM)
---------------------------------
  O     -0.000831    1.015505   -1.260013
  H      2.784105    0.758304    0.000692
  H     -2.788425    0.757715    0.002748
  S     -0.003802    0.271529   -0.001615
  C      2.606494   -0.311044    0.001420
  C     -2.606457   -0.310929    0.001901
  C      1.379221   -0.826135    0.000960
  H      3.473069   -0.961864    0.002542
  C     -1.376689   -0.822132    0.000487
  H     -3.470770   -0.964661    0.002260
  H      1.215556   -1.896662    0.001282
  H     -1.214525   -1.892653   -0.001184
  O     -0.001145    1.021626    1.253120

----------------------------
CARTESIAN COORDINATES (A.U.)
----------------------------
  NO LB      ZA    FRAG     MASS         X           Y           Z
   0 O     8.0000    0    15.999   -0.001571    1.919026   -2.381079
   1 H     1.0000    0     1.008    5.261196    1.432987    0.001308
   2 H     1.0000    0     1.008   -5.269359    1.431873    0.005193
   3 S    16.0000    0    32.060   -0.007185    0.513115   -0.003051
   4 C     6.0000    0    12.011    4.925559   -0.587789    0.002684
   5 C     6.0000    0    12.011   -4.925490   -0.587571    0.003592
   6 C     6.0000    0    12.011    2.606349   -1.561168    0.001814
   7 H     1.0000    0     1.008    6.563148   -1.817659    0.004804
   8 C     6.0000    0    12.011   -2.601566   -1.553604    0.000920
   9 H     1.0000    0     1.008   -6.558804   -1.822944    0.004270
  10 H     1.0000    0     1.008    2.297068   -3.584171    0.002423
  11 H     1.0000    0     1.008   -2.295119   -3.576595   -0.002237
  12 O     8.0000    0    15.999   -0.002164    1.930594    2.368053

--------------------------------
INTERNAL COORDINATES (ANGSTROEM)
--------------------------------
 O      0   0   0     0.000000000000     0.00000000     0.00000000
 H      1   0   0     3.067800165440     0.00000000     0.00000000
 H      1   2   0     3.071106730029   130.38969033     0.00000000
 S      1   2   3     1.461873683082    66.76079145   339.18539936
 C      2   1   3     1.083998488371    86.22956602    75.58538534
 C      3   1   2     1.084025979809    85.98956358   284.43441743
 C      5   2   1     1.330983616873   122.19825072   335.72445071
 H      5   2   1     1.083752363622   117.47716140   155.72366310
 C      6   3   1     1.331788123407   122.23578748    24.29496973
 H      6   3   1     1.083697908867   117.43882389   204.29401833
 H      7   5   2     1.082965595505   121.46014029   179.97416336
 H      9   6   3     1.082734844695   121.18602586   180.05194242
 O      4   1   2     1.461852033829   118.53611021    81.24543578

---------------------------
INTERNAL COORDINATES (A.U.)
---------------------------
 O      0   0   0     0.000000000000     0.00000000     0.00000000
 H      1   0   0     5.797302146280     0.00000000     0.00000000
 H      1   2   0     5.803550647798   130.38969033     0.00000000
 S      1   2   3     2.762540903411    66.76079145   339.18539936
 C      2   1   3     2.048460272605    86.22956602    75.58538534
 C      3   1   2     2.048512223895    85.98956358   284.43441743
 C      5   2   1     2.515194524626   122.19825072   335.72445071
 H      5   2   1     2.047995164235   117.47716140   155.72366310
 C      6   3   1     2.516714821648   122.23578748    24.29496973
 H      6   3   1     2.047892259662   117.43882389   204.29401833
 H      7   5   2     2.046508387963   121.46014029   179.97416336
 H      9   6   3     2.046072332127   121.18602586   180.05194242
 O      4   1   2     2.762499992252   118.53611021    81.24543578

--------------------------------------------------------------------------
WARNING: There was an error initializing an OpenFabrics device.

  Local host:   ga00
  Local device: mlx5_0
--------------------------------------------------------------------------


           ************************************************************
           *        Program running with 32 parallel MPI-processes    *
           *              working on a common directory               *
           ************************************************************
------------------------------------------------------------------------------
                   ___                                                        
                  /   \      - P O W E R E D   B Y -                         
                 /     \                                                     
                 |  |  |   _    _      __       _____    __    __             
                 |  |  |  | |  | |    /  \     |  _  \  |  |  /  |          
                  \  \/   | |  | |   /    \    | | | |  |  | /  /          
                 / \  \   | |__| |  /  /\  \   | |_| |  |  |/  /          
                |  |  |   |  __  | /  /__\  \  |    /   |      \           
                |  |  |   | |  | | |   __   |  |    \   |  |\   \          
                \     /   | |  | | |  |  |  |  | |\  \  |  | \   \       
                 \___/    |_|  |_| |__|  |__|  |_| \__\ |__|  \__/        
                                                                              
                      - O R C A' S   B I G   F R I E N D -                    
                                      &                                       
                       - I N T E G R A L  F E E D E R -                       
                                                                              
 v1 FN, 2020, v2 2021, v3 2022-2024                                           
------------------------------------------------------------------------------


----------------------
SHARK INTEGRAL PACKAGE
----------------------

Number of atoms                             ...     13
Number of basis functions                   ...    204
Number of shells                            ...    104
Maximum angular momentum                    ...      2
Integral batch strategy                     ... SHARK/LIBINT Hybrid
RI-J (if used) integral strategy            ... SPLIT-RIJ (Revised 2003 algorithm where possible)
Printlevel                                  ...      1
Contraction scheme used                     ... SEGMENTED contraction
Prescreening option                         ... SCHWARTZ
   Thresh                                   ... 2.500e-11
[...]
      dz2     :     0.009837  d :     0.049188
      dxz     :     0.006782
      dyz     :     0.012740
      dx2y2   :     0.008599
      dxy     :     0.011229

  7 H s       :     0.832074  s :     0.832074
      pz      :     0.005760  p :     0.025282
      px      :     0.011683
      py      :     0.007838

  8 C s       :     2.898465  s :     2.898465
      pz      :     1.027564  p :     3.042670
      px      :     0.966888
      py      :     1.048218
      dz2     :     0.009836  d :     0.049193
      dxz     :     0.006741
      dyz     :     0.012605
      dx2y2   :     0.008755
      dxy     :     0.011257

  9 H s       :     0.832061  s :     0.832061
      pz      :     0.005734  p :     0.025281
      px      :     0.011754
      py      :     0.007793

 10 H s       :     0.706718  s :     0.706718
      pz      :     0.008578  p :     0.025707
      px      :     0.004908
      py      :     0.012221

 11 H s       :     0.706697  s :     0.706697
      pz      :     0.008602  p :     0.025707
      px      :     0.004892
      py      :     0.012212

 12 O s       :     3.747673  s :     3.747673
      pz      :     1.477912  p :     4.510428
      px      :     1.697883
      py      :     1.334633
      dz2     :     0.002572  d :     0.015707
      dxz     :     0.001346
      dyz     :     0.005627
      dx2y2   :     0.003486
      dxy     :     0.002676



                     *******************************
                     * LOEWDIN POPULATION ANALYSIS *
                     *******************************

----------------------
LOEWDIN ATOMIC CHARGES
----------------------
   0 O :   -0.607978
   1 H :    0.064669
   2 H :    0.064664
   3 S :    1.348261
   4 C :    0.003225
   5 C :    0.003182
   6 C :   -0.235220
   7 H :    0.049075
   8 C :   -0.235166
   9 H :    0.049077
  10 H :    0.063207
  11 H :    0.063208
  12 O :   -0.630204

-------------------------------
LOEWDIN REDUCED ORBITAL CHARGES
-------------------------------
  0 O s       :     3.692591  s :     3.692591
      pz      :     1.423314  p :     4.890173
      px      :     1.747967
      py      :     1.718892
      dz2     :     0.014983  d :     0.025215
      dxz     :     0.004825
      dyz     :     0.005132
      dx2y2   :     0.000115
      dxy     :     0.000160

  1 H s       :     0.861653  s :     0.861653
      pz      :     0.020454  p :     0.073677
      px      :     0.013973
      py      :     0.039250

  2 H s       :     0.861665  s :     0.861665
      pz      :     0.020512  p :     0.073671
      px      :     0.013980
      py      :     0.039179

  3 S s       :     4.927624  s :     4.927624
      pz      :     2.975836  p :     9.043371
      px      :     3.064437
      py      :     3.003098
      dz2     :     0.189790  d :     0.680743
      dxz     :     0.116287
      dyz     :     0.172773
      dx2y2   :     0.059174
      dxy     :     0.142719

  4 C s       :     2.821010  s :     2.821010
      pz      :     1.019178  p :     3.079203
      px      :     1.033630
      py      :     1.026395
      dz2     :     0.018890  d :     0.096561
      dxz     :     0.021072
      dyz     :     0.019904
      dx2y2   :     0.018530
      dxy     :     0.018165

  5 C s       :     2.820994  s :     2.820994
      pz      :     1.017711  p :     3.079259
      px      :     1.035561
      py      :     1.025987
      dz2     :     0.018747  d :     0.096565
      dxz     :     0.021011
      dyz     :     0.019692
      dx2y2   :     0.018807
      dxy     :     0.018308

  6 C s       :     2.879590  s :     2.879590
      pz      :     1.098485  p :     3.238691
      px      :     1.080455
      py      :     1.059751
      dz2     :     0.020743  d :     0.116939
      dxz     :     0.021552
      dyz     :     0.026830
      dx2y2   :     0.020774
      dxy     :     0.027040

  7 H s       :     0.879779  s :     0.879779
      pz      :     0.014063  p :     0.071146
      px      :     0.034086
      py      :     0.022997

  8 C s       :     2.879577  s :     2.879577
      pz      :     1.097589  p :     3.238643
      px      :     1.081126
      py      :     1.059928
      dz2     :     0.020672  d :     0.116945
      dxz     :     0.021477
      dyz     :     0.026507
      dx2y2   :     0.021147
      dxy     :     0.027143

  9 H s       :     0.879780  s :     0.879780
      pz      :     0.013985  p :     0.071143
      px      :     0.034323
      py      :     0.022835

 10 H s       :     0.859319  s :     0.859319
      pz      :     0.024161  p :     0.077474
      px      :     0.015091
      py      :     0.038222

 11 H s       :     0.859317  s :     0.859317
      pz      :     0.024234  p :     0.077475
      px      :     0.015067
      py      :     0.038174

 12 O s       :     3.679387  s :     3.679387
      pz      :     1.623707  p :     4.925763
      px      :     1.759706
      py      :     1.542350
      dz2     :     0.003161  d :     0.025055
      dxz     :     0.001704
      dyz     :     0.010802
      dx2y2   :     0.006144
      dxy     :     0.003244



                      *****************************
                      * MAYER POPULATION ANALYSIS *
                      *****************************

  NA   - Mulliken gross atomic population
  ZA   - Total nuclear charge
  QA   - Mulliken gross atomic charge
  VA   - Mayer's total valence
  BVA  - Mayer's bonded valence
  FA   - Mayer's free valence

  ATOM       NA         ZA         QA         VA         BVA        FA
  0 O      8.1785     8.0000    -0.1785     1.5581     1.5581    -0.0000
  1 H      0.8002     1.0000     0.1998     0.9255     0.9255    -0.0000
  2 H      0.8002     1.0000     0.1998     0.9255     0.9255    -0.0000
  3 S     16.0241    16.0000    -0.0241     5.9303     5.9303    -0.0000
  4 C      6.3813     6.0000    -0.3813     4.0933     4.0933    -0.0000
  5 C      6.3816     6.0000    -0.3816     4.0935     4.0935    -0.0000
  6 C      5.9905     6.0000     0.0095     2.9571     2.9571    -0.0000
  7 H      0.8574     1.0000     0.1426     0.9759     0.9759     0.0000
  8 C      5.9903     6.0000     0.0097     2.9570     2.9570    -0.0000
  9 H      0.8573     1.0000     0.1427     0.9758     0.9758    -0.0000
 10 H      0.7324     1.0000     0.2676     0.8457     0.8457    -0.0000
 11 H      0.7324     1.0000     0.2676     0.8457     0.8457    -0.0000
 12 O      8.2738     8.0000    -0.2738     1.7100     1.7100    -0.0000

  Mayer bond orders larger than 0.100000
B(  0-O ,  3-S ) :   2.0291 B(  0-O ,  6-C ) :  -0.1307 B(  0-O ,  8-C ) :  -0.1306 
B(  0-O , 12-O ) :  -0.2350 B(  1-H ,  4-C ) :   0.9269 B(  2-H ,  5-C ) :   0.9269 
B(  3-S ,  4-C ) :   0.1126 B(  3-S ,  5-C ) :   0.1126 B(  3-S ,  6-C ) :   0.7899 
B(  3-S ,  8-C ) :   0.7899 B(  3-S , 12-O ) :   2.0491 B(  4-C ,  6-C ) :   1.8111 
B(  4-C ,  7-H ) :   0.9553 B(  5-C ,  8-C ) :   1.8112 B(  5-C ,  9-H ) :   0.9553 
B(  6-C ,  8-C ) :  -0.2286 B(  6-C , 10-H ) :   0.8350 B(  6-C , 12-O ) :  -0.1784 
B(  8-C , 11-H ) :   0.8349 B(  8-C , 12-O ) :  -0.1785 

-------
TIMINGS
-------

Total SCF time: 0 days 0 hours 0 min 2 sec 

Total time                  ....       2.289 sec
Sum of individual times     ....       2.257 sec  ( 98.6%)

SCF preparation             ....       0.895 sec  ( 39.1%)
Fock matrix formation       ....       1.212 sec  ( 53.0%)
  Startup                   ....       0.006 sec  (  0.5% of F)
  Split-RI-J                ....       0.105 sec  (  8.6% of F)
  Chain of spheres X        ....       0.896 sec  ( 73.9% of F)
  XC integration            ....       0.188 sec  ( 15.5% of F)
    XC Preparation          ....       0.000 sec  (  0.0% of XC)
    Basis function eval.    ....       0.037 sec  ( 19.9% of XC)
    Density eval.           ....       0.032 sec  ( 16.9% of XC)
    XC-Functional eval.     ....       0.006 sec  (  3.3% of XC)
    XC-Potential eval.      ....       0.037 sec  ( 19.9% of XC)
Diagonalization             ....       0.000 sec  (  0.0%)
Density matrix formation    ....       0.011 sec  (  0.5%)
Total Energy calculation    ....       0.010 sec  (  0.5%)
Population analysis         ....       0.055 sec  (  2.4%)
Orbital Transformation      ....       0.012 sec  (  0.5%)
Orbital Orthonormalization  ....       0.000 sec  (  0.0%)
DIIS solution               ....       0.015 sec  (  0.7%)
SOSCF solution              ....       0.045 sec  (  2.0%)
Finished LeanSCF after   2.3 sec

Maximum memory used throughout the entire LEANSCF-calculation: 24.9 MB
[ga00:145363] 31 more processes have sent help message help-mpi-btl-openib.txt / error in device init
[ga00:145363] Set MCA parameter "orte_base_help_aggregate" to 0 to see all help / error messages


-------------------------------------------------------------------------------
                          DFT DISPERSION CORRECTION                            
                                                                               
                              DFTD3 V3.1  Rev 1                                
                          USING Becke-Johnson damping                          
-------------------------------------------------------------------------------
The B3LYP functional is recognized
Active option DFTDOPT                   ...         4   

molecular C6(AA) [au] = 2393.457291 


            DFT-D V3
 parameters
 s6 scaling factor         :     1.0000 
 a1 scaling factor         :     0.3981 
 s8 scaling factor         :     1.9889 
 a2 scaling factor         :     4.4211 
 ad hoc parameters k1-k3   :    16.0000     1.3333    -4.0000 

 Edisp/kcal,au: -14.219601671372  -0.022660375249 
 E6   /kcal   :  -6.372919212 
 E8   /kcal   :  -7.846682459 
 % E8         :  55.182153767 

-------------------------   ----------------
Dispersion correction           -0.022660375
-------------------------   ----------------


-------------------------   --------------------
FINAL SINGLE POINT ENERGY      -704.459187335522
-------------------------   --------------------

                                *** OPTIMIZATION RUN DONE ***

--------------------------------------------------------------------------
WARNING: There was an error initializing an OpenFabrics device.

  Local host:   ga00
  Local device: mlx5_0
--------------------------------------------------------------------------


           ************************************************************
           *        Program running with 32 parallel MPI-processes    *
           *              working on a common directory               *
           ************************************************************

------------------------------------------------------------------------------
                              ORCA PROPERTY CALCULATIONS
------------------------------------------------------------------------------

GBWName                                 ... input.gbw
Number of atoms                         ...     13
Number of basis functions               ...    204
Max core memory                         ...   5000 MB

Electric properties:
Dipole moment                           ... YES
Quadrupole moment                       ...  NO
Static polarizability (Dipole/Dipole)   ...  NO
Static polarizability (Dipole/Quad.)    ...  NO
Static polarizability (Quad./Quad.)     ...  NO
Static polarizability (Velocity)        ...  NO

Atomic electric properties:
Dipole moment                           ...  NO
Quadrupole moment                       ...  NO
Static polarizability                   ...  NO

Choice of electric origin               ... Center of mass
Position of electric origin             ...     0.004337     0.121672    -0.789707

General magnetic properties:
Magnetizability                         ...  NO

EPR properties:
g-Tensor (aka g-matrix)                 ...  NO
Zero-Field splitting spin-orbit         ...  NO
Zero-field splitting spin-spin          ...  NO
Hyperfine couplings                     ...  NO (   0 nuclei)
Quadrupole couplings                    ...  NO (   0 nuclei)
Contact density                         ...  NO (   0 nuclei)

NMR properties:
Chemical shifts                         ...  NO (   0 nuclei)
Spin-rotation constants                 ...  NO (   0 nuclei)
Spin-spin couplings                     ...  NO (   0 nuclei,    0 pairs)

Choice of magnetic origin               ... GIAO
Position of magnetic origin             ...     0.000000     0.000000     0.000000

Properties with geometric perturbations:
SCF Hessian                             ...  NO
IR spectrum                             ...  NO
VCD spectrum                            ...  NO
X-ray spectroscopy properties:
SCF XES/XAS/RIXS spectra                ...  NO


-------------
DIPOLE MOMENT
-------------

Method             : SCF
Type of density    : Electron Density
Multiplicity       :   1
Irrep              :   0
Energy             :  -704.4365269602733406 Eh
Relativity type    : 
Basis              : AO
                                X                 Y                 Z
Electronic contribution:      0.019770890       2.598896826      -3.353752023
Nuclear contribution   :     -0.028186873      -4.154826701       4.498195896
                        -----------------------------------------
Total Dipole Moment    :     -0.008415983      -1.555929876       1.144443873
                        -----------------------------------------
Magnitude (a.u.)       :      1.931512461
Magnitude (Debye)      :      4.909514509



--------------------
Rotational spectrum 
--------------------
 
Rotational constants in cm-1:             0.104852             0.065647             0.056165 
Rotational constants in MHz :          3143.369803          1968.053031          1683.769917 

Dipole components along the rotational axes: 
x,y,z [a.u.] :     0.000181    -1.570277    -1.124710 
x,y,z [Debye]:     0.000459    -3.991326    -2.858785 

 

Dipole moment calculation done in   0.0 sec 

Maximum memory used throughout the entire PROP-calculation: 13.1 MB
[ga00:145522] 31 more processes have sent help message help-mpi-btl-openib.txt / error in device init
[ga00:145522] Set MCA parameter "orte_base_help_aggregate" to 0 to see all help / error messages
--------------------------------------------------------------------------
WARNING: There was an error initializing an OpenFabrics device.

  Local host:   ga00
  Local device: mlx5_0
--------------------------------------------------------------------------
[ga00:145679] 31 more processes have sent help message help-mpi-btl-openib.txt / error in device init
[ga00:145679] Set MCA parameter "orte_base_help_aggregate" to 0 to see all help / error messages

--------------------------------
SUGGESTED CITATIONS FOR THIS RUN
--------------------------------

Below you find a list of papers that are relevant to this ORCA run
We neither can nor want to force you to cite these papers, but we appreciate if you do
You receive ORCA, which is the product of decades of hard work by many enthusiastic individuals, for free
The only thing we kindly ask in return is that you cite our papers,
We deeply appreciate it, if you show your appreciation for ORCA by not just citing the generic ORCA reference.

Please note that relegating all ORCA citations to the supporting information does *not* help us.
SI sections are not indexed - citations you put there will not count into any citation statistics
But we need these citations in order to attract the funding resources that allow us to do what we are doing

Therefore, if you are a happy ORCA user, please consider citing a few of the papers listed below in the main body of your paper

In addition to the list printed below, the program has created the file input.bibtex that contains the list in bibtex format
You can import this file easily into all common literature databanks and citation aid programs


List of essential papers. We consider these as the minimum necessary citations

  1. Neese,F.
     Software update: the ORCA program system, version 5.0
     WIRES Comput. Molec. Sci., 2022 12(1)e1606
     doi.org/10.1002/wcms.1606

List of papers to cite with high priority. The work reported in these papers was absolutely
necessary for this run to complete.
Our perspective: the developers of density functionals and basis sets usually get cited in chemistry papers
Good! But without the algorithms to do something with them, the functionals or basis sets would not do anything.
Hence, in our opinion, the algorithm design and method developments papers are equally worthy of getting cited

  1. Neese,F.
     An improvement of the resolution of the identity approximation for the formation of the Coulomb matrix
     J. Comp. Chem., 2003 24(14)1740-1747
     doi.org/10.1002/jcc.10318
  2. Neese,F.; Wennmohs,F.; Hansen,A.; Becker,U.
     Efficient, approximate and parallel Hartree-Fock and hybrid DFT calculations. A 'chain-of-spheres' algorithm for the Hartree-Fock exchange
     Chem. Phys., 2009 356(1-3)98-109
     doi.org/10.1016/j.chemphys.2008.10.036
  3. Helmich-Paris,B.; de Souza,B.; Neese,F.; Izsák,R.
     An improved chain of spheres for exchange algorithm
     J. Chem. Phys., 2021 155 104109
     doi.org/doi: 10.1063/5.0058766.
  4. Neese,F.
     The SHARK Integral Generation and Digestion System
     J. Comp. Chem., 2022  1-16
     doi.org/10.1002/jcc.26942
  5. Grimme,S.; Antony,J.; Ehrlich,S.; Krieg,H.
     A consistent and accurate ab initio parametrization of density functional dispersion correction (DFT-D) for the 94 elements H-Pu
     J. Chem. Phys., 2010 132 154104
     doi.org/10.1063/1.3382344
  6. Grimme,S.; Ehrlich,S.; Goerigk,L.
     Effect of the damping function in dispersion corrected density functional theory
     J. Comput. Chem., 2011 32(7)1456-1465
     doi.org/10.1002/jcc.21759

List of suggested additional citations. These are papers that are important in the 'surrounding' of 
of this run, or papers that preceded the highly important papers. If you like your results we are grateful for a citation.

  1. Izsak,R.; Neese,F.
     An overlap fitted chain of spheres exchange method
     J. Chem. Phys., 2011 135 144105
     doi.org/10.1063/1.3646921
  2. Izsak,R.; Hansen,A.; Neese,F.
     The resolution of identity and chain of spheres approximations for the LPNO-CCSD singles Fock term
     Molec. Phys., 2012 110 2413-2417
     doi.org/10.1080/00268976.2012.687466
  3. Neese,F.
     The ORCA program system
     WIRES Comput. Molec. Sci., 2012 2(1)73-78
     doi.org/10.1002/wcms.81
  4. Izsak,R.; Neese,F.; Klopper,W.
     Robust fitting techniques in the chain of spheres approximation to the Fock exchange: The role of the complementary space
     J. Chem. Phys., 2013 139 
     doi.org/10.1063/1.4819264
  5. Neese,F.
     Software update: the ORCA program system, version 4.0
     WIRES Comput. Molec. Sci., 2018 8(1)1-6
     doi.org/10.1002/wcms.1327
  6. Neese,F.; Wennmohs,F.; Becker,U.; Riplinger,C.
     The ORCA quantum chemistry program package
     J. Chem. Phys., 2020 152 Art. No. L224108
     doi.org/10.1063/5.0004608

List of optional additional citations

  1. Neese,F.
     Approximate second-order SCF convergence for spin unrestricted wavefunctions
     Chem. Phys. Lett., 2000 325(1-3)93-98
     doi.org/10.1016/s0009-2614(00)00662-x

Timings for individual modules:

Sum of individual times          ...      229.977 sec (=   3.833 min)
Startup calculation              ...       43.113 sec (=   0.719 min)  18.7 %
SCF iterations                   ...      120.422 sec (=   2.007 min)  52.4 %
Property calculations            ...        1.191 sec (=   0.020 min)   0.5 %
SCF Gradient evaluation          ...       65.169 sec (=   1.086 min)  28.3 %
Geometry relaxation              ...        0.082 sec (=   0.001 min)   0.0 %
                             ****ORCA TERMINATED NORMALLY****
TOTAL RUN TIME: 0 days 0 hours 4 minutes 19 seconds 757 msec
