[Molden Format]
[Title]
 Molden file created by orca_2mkl for BaseName=input

[Atoms] AU
O    1   8          0.0184183747         0.7370954948        -4.2299664727 
H    2   1          3.8283661734         1.0135053911         2.2921231964 
H    3   1         -3.8386643543         1.0352494477         2.2631483626 
S    4  16          0.0079952146         0.5181876611        -1.4670893361 
C    5   6          4.1897911026        -0.7050412753         1.2358041371 
C    6   6         -4.2007896492        -0.6817084973         1.2044744318 
C    7   6          2.6517725638        -1.4161288426        -0.6074790227 
H    8   1          5.8467526600        -1.8125716589         1.7103144194 
C    9   6         -2.6526591205        -1.4015624951        -0.6268204850 
H   10   1         -5.8671886924        -1.7801371577         1.6670436401 
H   11   1          2.8855848699        -3.0748453967        -1.7854604385 
H   12   1         -2.8857769436        -3.0591559728        -1.8065262882 
O   13   8          0.0084609513         2.7632069681         0.1591265962 
[GTO]
  1 0
s   6 1.0 
     8588.5000000000         1.2050128859
     1297.2300000000         2.2162047744
      299.2960000000         3.6274524983
       87.3771000000         4.8884523076
       25.6789000000         4.8357205177
        3.7400400000         0.5382294948
s   3 1.0 
       42.1175000000         1.3419577961
        9.6283700000         3.5871143115
        2.8533200000        -0.0051234679
p   3 1.0 
       42.1175000000         5.5840175343
        9.6283700000         5.7333656931
        2.8533200000         4.3329547351
s   1 1.0 
        0.9056610000         0.6616591794
p   1 1.0 
        0.9056610000         1.2593521004
s   1 1.0 
        0.2556110000         0.2562092156
p   1 1.0 
        0.2556110000         0.2590684413
s   1 1.0 
        0.0845000000         0.1116998588
p   1 1.0 
        0.0845000000         0.0649398041
d   1 1.0 
        1.2920000000         4.4635405283

  2 0
s   3 1.0 
       33.8650000000         0.2550693200
        5.0947900000         0.4601086622
        1.1587900000         0.6783214465
s   1 1.0 
        0.3258400000         0.3073713539
s   1 1.0 
        0.1027410000         0.1293355558
s   1 1.0 
        0.0360000000         0.0589029394
p   1 1.0 
        0.7500000000         0.9948707607

  3 0
s   3 1.0 
       33.8650000000         0.2550693200
        5.0947900000         0.4601086622
        1.1587900000         0.6783214465
s   1 1.0 
        0.3258400000         0.3073713539
s   1 1.0 
        0.1027410000         0.1293355558
s   1 1.0 
        0.0360000000         0.0589029394
p   1 1.0 
        0.7500000000         0.9948707607

  4 0
s   6 1.0 
    93413.4000000000         2.8294743762
    13961.7000000000         5.3029474302
     3169.9100000000         9.0188277259
      902.4560000000        13.9678232478
      297.1580000000        18.7935135119
      108.7020000000        13.8512517622
s   3 1.0 
      108.7020000000         3.4354923224
       43.1553000000         7.4936599464
       18.1079000000         1.7727972920
s   1 1.0 
        5.5600900000         2.5806045480
s   1 1.0 
        2.1318300000         1.2574030786
s   1 1.0 
        0.4204030000         0.3720998090
s   1 1.0 
        0.1360450000         0.1596511426
p   4 1.0 
      495.0400000000        27.6559985169
      117.2210000000        35.1997679628
       37.7749000000        37.0583208489
       14.0584000000        28.9108368994
p   2 1.0 
        5.5657400000         7.4783900743
        2.2629700000         1.7558736580
p   1 1.0 
        0.8079940000         1.0919437268
p   1 1.0 
        0.2774600000         0.2870387733
p   1 1.0 
        0.0771410000         0.0579490964
s   1 1.0 
        0.0405000000         0.0643430079
p   1 1.0 
        0.0405000000         0.0258975611
d   1 1.0 
        0.6500000000         1.3414313681

  5 0
s   6 1.0 
     4563.2400000000         0.7782017567
      682.0240000000         1.4486948054
      154.9730000000         2.3830893322
       44.4553000000         3.2000890123
       13.0290000000         3.0130044376
        1.8277300000         0.2475986326
s   3 1.0 
       20.9642000000         0.8006285193
        4.8033100000         2.1274198914
        1.4593300000        -0.0028679106
p   3 1.0 
       20.9642000000         2.5735922152
        4.8033100000         2.4082482228
        1.4593300000         1.8652813335
s   1 1.0 
        0.4834560000         0.4132166458
p   1 1.0 
        0.4834560000         0.5746273343
s   1 1.0 
        0.1455850000         0.1679761277
p   1 1.0 
        0.1455850000         0.1281846070
s   1 1.0 
        0.0438000000         0.0682363322
p   1 1.0 
        0.0438000000         0.0285616127
d   1 1.0 
        0.6260000000         1.2559581449

  6 0
s   6 1.0 
     4563.2400000000         0.7782017567
      682.0240000000         1.4486948054
      154.9730000000         2.3830893322
       44.4553000000         3.2000890123
       13.0290000000         3.0130044376
        1.8277300000         0.2475986326
s   3 1.0 
       20.9642000000         0.8006285193
        4.8033100000         2.1274198914
        1.4593300000        -0.0028679106
p   3 1.0 
       20.9642000000         2.5735922152
        4.8033100000         2.4082482228
        1.4593300000         1.8652813335
s   1 1.0 
        0.4834560000         0.4132166458
p   1 1.0 
        0.4834560000         0.5746273343
s   1 1.0 
        0.1455850000         0.1679761277
p   1 1.0 
        0.1455850000         0.1281846070
s   1 1.0 
        0.0438000000         0.0682363322
p   1 1.0 
        0.0438000000         0.0285616127
d   1 1.0 
        0.6260000000         1.2559581449

  7 0
s   6 1.0 
     4563.2400000000         0.7782017567
      682.0240000000         1.4486948054
      154.9730000000         2.3830893322
       44.4553000000         3.2000890123
       13.0290000000         3.0130044376
        1.8277300000         0.2475986326
s   3 1.0 
       20.9642000000         0.8006285193
        4.8033100000         2.1274198914
        1.4593300000        -0.0028679106
p   3 1.0 
       20.9642000000         2.5735922152
        4.8033100000         2.4082482228
        1.4593300000         1.8652813335
s   1 1.0 
        0.4834560000         0.4132166458
p   1 1.0 
        0.4834560000         0.5746273343
s   1 1.0 
        0.1455850000         0.1679761277
p   1 1.0 
        0.1455850000         0.1281846070
s   1 1.0 
        0.0438000000         0.0682363322
p   1 1.0 
        0.0438000000         0.0285616127
d   1 1.0 
        0.6260000000         1.2559581449

  8 0
s   3 1.0 
       33.8650000000         0.2550693200
        5.0947900000         0.4601086622
        1.1587900000         0.6783214465
s   1 1.0 
        0.3258400000         0.3073713539
s   1 1.0 
        0.1027410000         0.1293355558
s   1 1.0 
        0.0360000000         0.0589029394
p   1 1.0 
        0.7500000000         0.9948707607

  9 0
s   6 1.0 
     4563.2400000000         0.7782017567
      682.0240000000         1.4486948054
      154.9730000000         2.3830893322
       44.4553000000         3.2000890123
       13.0290000000         3.0130044376
        1.8277300000         0.2475986326
s   3 1.0 
       20.9642000000         0.8006285193
        4.8033100000         2.1274198914
        1.4593300000        -0.0028679106
p   3 1.0 
       20.9642000000         2.5735922152
        4.8033100000         2.4082482228
        1.4593300000         1.8652813335
s   1 1.0 
        0.4834560000         0.4132166458
p   1 1.0 
        0.4834560000         0.5746273343
s   1 1.0 
        0.1455850000         0.1679761277
p   1 1.0 
        0.1455850000         0.1281846070
s   1 1.0 
        0.0438000000         0.0682363322
p   1 1.0 
        0.0438000000         0.0285616127
d   1 1.0 
        0.6260000000         1.2559581449

 10 0
s   3 1.0 
       33.8650000000         0.2550693200
        5.0947900000         0.4601086622
        1.1587900000         0.6783214465
s   1 1.0 
        0.3258400000         0.3073713539
s   1 1.0 
        0.1027410000         0.1293355558
s   1 1.0 
        0.0360000000         0.0589029394
p   1 1.0 
        0.7500000000         0.9948707607

 11 0
s   3 1.0 
       33.8650000000         0.2550693200
        5.0947900000         0.4601086622
        1.1587900000         0.6783214465
s   1 1.0 
        0.3258400000         0.3073713539
s   1 1.0 
        0.1027410000         0.1293355558
s   1 1.0 
        0.0360000000         0.0589029394
p   1 1.0 
        0.7500000000         0.9948707607

 12 0
s   3 1.0 
       33.8650000000         0.2550693200
        5.0947900000         0.4601086622
        1.1587900000         0.6783214465
s   1 1.0 
        0.3258400000         0.3073713539
s   1 1.0 
        0.1027410000         0.1293355558
s   1 1.0 
        0.0360000000         0.0589029394
p   1 1.0 
        0.7500000000         0.9948707607

 13 0
s   6 1.0 
     8588.5000000000         1.2050128859
     1297.2300000000         2.2162047744
      299.2960000000         3.6274524983
       87.3771000000         4.8884523076
       25.6789000000         4.8357205177
        3.7400400000         0.5382294948
s   3 1.0 
       42.1175000000         1.3419577961
        9.6283700000         3.5871143115
        2.8533200000        -0.0051234679
p   3 1.0 
       42.1175000000         5.5840175343
        9.6283700000         5.7333656931
        2.8533200000         4.3329547351
s   1 1.0 
        0.9056610000         0.6616591794
p   1 1.0 
        0.9056610000         1.2593521004
s   1 1.0 
        0.2556110000         0.2562092156
p   1 1.0 
        0.2556110000         0.2590684413
s   1 1.0 
        0.0845000000         0.1116998588
p   1 1.0 
        0.0845000000         0.0649398041
d   1 1.0 
        1.2920000000         4.4635405283

[5D]
[7F]
[9G]
[MO]
 Sym=     1a
 Ene= -8.90541312373155E+01
 Spin= Alpha
 Occup= 2.000000
  1       0.000000639555
  2      -0.000006555164
  3       0.000000150528
  4       0.000001573887
  5      -0.000041415792
  6      -0.000016156887
  7      -0.000000414218
  8      -0.000003000907
  9       0.000115182838
 10      -0.000017804750
 11       0.000000254112
 12      -0.000000084529
 13      -0.000074477043
 14      -0.001220073589
 15       0.000001893068
 16       0.000097604885
 17      -0.000461097063
 18       0.000085633053
 19      -0.000000561154
 20      -0.000010906098
 21      -0.000000910596
 22       0.000000044265
 23       0.000006717636
 24       0.000035921651
 25      -0.000018436821
 26      -0.000333482545
 27      -0.000006894514
 28      -0.000012569251
 29      -0.000016963759
 30       0.000006711894
 31       0.000035958635
 32      -0.000018516422
 33      -0.000333338455
 34       0.000006960050
 35      -0.000012633716
 36      -0.000016921739
 37      -0.410903430336
 38      -0.654363517027
 39      -0.015383309700
 40       0.004707447990
 41      -0.002305473709
 42       0.003426040787
 43      -0.000000038201
 44      -0.000006948868
 45       0.000002442220
 46      -0.000000010616
 47      -0.000000626341
 48       0.000003509256
 49       0.000000187506
 50       0.000032472850
 51      -0.000027483524
 52      -0.000000700647
 53      -0.000130374650
 54       0.000095255436
 55       0.000001102089
 56       0.000077301453
 57      -0.000219704706
 58       0.001899497857
 59      -0.000002129765
 60      -0.000173511442
 61       0.000478842276
 62      -0.000042181265
 63       0.000000267165
 64      -0.000028040850
 65       0.000024421544
 66      -0.000000033279
 67       0.000003147564
 68      -0.000008761625
 69       0.000009224690
 70       0.000000556614
 71       0.000007919827
 72       0.000047650466
 73      -0.000075186116
 74      -0.000011335868
 75      -0.000071051569
 76      -0.000062823268
 77      -0.000033790449
 78       0.000071712909
 79       0.000025080809
 80      -0.000093402318
 81       0.000002862341
 82       0.000125108965
 83       0.000144992357
 84       0.000020322201
 85       0.000019998029
 86      -0.000011358212
 87       0.000022607671
 88       0.000031153682
 89       0.000003147494
 90      -0.000008761652
 91      -0.000009282857
 92       0.000000610828
 93       0.000007857333
 94       0.000047652412
 95       0.000075667376
 96      -0.000011786387
 97      -0.000070518341
 98      -0.000062797393
 99       0.000033997267
100       0.000071521765
101       0.000025355934
102      -0.000094508432
103      -0.000003426289
104       0.000125220076
105       0.000145054662
106       0.000020057208
107      -0.000020148239
108      -0.000011478717
109       0.000022449295
110      -0.000031308894
111      -0.000002971118
112       0.000006769211
113       0.000024200864
114      -0.000017870254
115       0.000009397257
116      -0.000005671798
117      -0.000055873758
118       0.000027273373
119      -0.000031360997
120      -0.000504707078
121       0.000318082905
122      -0.000238290390
123       0.000081478517
124       0.000018612406
125       0.000097247384
126      -0.000124859736
127      -0.000161229163
128      -0.000027617058
129      -0.000020637289
130      -0.000050785753
131       0.000009256998
132      -0.000039083657
133       0.000003742130
134       0.000059548607
135      -0.000008686733
136       0.000139264539
137      -0.000016955430
138       0.000008799079
139      -0.000005070789
140      -0.000002971403
141       0.000006770363
142      -0.000024359709
143      -0.000017729743
144       0.000009217070
145      -0.000005669985
146       0.000056231033
147       0.000026914506
148      -0.000030956054
149      -0.000504654023
150      -0.000319890874
151      -0.000236525772
152       0.000079057707
153       0.000019977126
154      -0.000096758577
155      -0.000124037467
156      -0.000161658999
157      -0.000027317630
158       0.000020799968
159      -0.000050598967
160       0.000009523745
161       0.000039368664
162       0.000003735416
163       0.000059541072
164      -0.000008659871
165       0.000139291759
166       0.000017034701
167       0.000008701467
168      -0.000004953536
169       0.000011668302
170       0.000063808337
171      -0.000189634698
172      -0.000196001289
173      -0.000019616966
174       0.000026577310
175      -0.000001498628
176       0.000011693650
177       0.000063725644
178      -0.000189596775
179      -0.000195924011
180       0.000019721469
181       0.000026433632
182      -0.000001344132
183      -0.000000099720
184      -0.000002915867
185      -0.000000000127
186       0.000033124592
187       0.000025952155
188      -0.000039297611
189       0.000000008400
190      -0.000090415177
191      -0.000073209173
192       0.000062549793
193      -0.000000030727
194       0.000069273349
195       0.000063930868
196      -0.001262889794
197       0.000000283120
198       0.000362337136
199       0.000202710309
200       0.000002846637
201       0.000000006746
202       0.000068878056
203      -0.000047095497
204       0.000000015802
 Sym=     1a
 Ene= -1.91197058110804E+01
 Spin= Alpha
 Occup= 2.000000
  1       0.000123582076
  2       0.000084430929
  3       0.000000031315
  4       0.000002983601
  5      -0.000006389480
  6       0.000213740794
  7      -0.000000198653
  8      -0.000004973208
  9       0.000051682034
 10      -0.000831513863
 11       0.000001415963
 12      -0.000108233068
 13      -0.000480862958
 14       0.000189321138
 15       0.000002788987
 16       0.000609944834
 17      -0.000364415908
 18      -0.000029498169
 19       0.000000090228
 20      -0.000050921348
 21       0.000012549017
 22       0.000000111526
 23       0.000065901623
 24      -0.000351972616
 25      -0.000737785106
 26       0.002022482717
 27       0.000089027439
 28      -0.000039506578
 29       0.000048600631
 30       0.000066106726
 31      -0.000353155340
 32      -0.000736614452
 33       0.002020964154
 34      -0.000089653915
 35      -0.000038739248
 36       0.000048163246
 37       0.000000798243
 38       0.000005966416
 39      -0.000024750926
 40      -0.000015137483
 41      -0.000154403966
 42       0.002961039454
 43       0.000000017350
 44      -0.000004743831
 45      -0.000007778900
 46      -0.000000099491
 47      -0.000007689277
 48       0.000017959605
 49       0.000000542259
 50       0.000172758241
 51       0.000004472040
 52      -0.000000884501
 53       0.000614339829
 54       0.000659759331
 55      -0.000007153546
 56      -0.004751571085
 57      -0.001249067747
 58      -0.040762802411
 59       0.000044287312
 60       0.006855166187
 61      -0.006647253276
 62       0.000017027845
 63      -0.000000018598
 64       0.000072968628
 65      -0.000030389471
 66      -0.000000114065
 67       0.000001653509
 68      -0.000006526398
 69      -0.000010311096
 70       0.000021035403
 71       0.000013752102
 72       0.000113809098
 73       0.000021279171
 74      -0.000059618856
 75      -0.000051312897
 76      -0.000360563317
 77      -0.000087329079
 78       0.000713139204
 79       0.000610770147
 80       0.009579250591
 81      -0.002536272807
 82      -0.000826555293
 83      -0.002082779917
 84      -0.000008264104
 85      -0.000033386647
 86      -0.000043040707
 87       0.000007633313
 88       0.000009369520
 89       0.000001660834
 90      -0.000006564768
 91       0.000010289900
 92       0.000020919316
 93       0.000013783180
 94       0.000114027504
 95      -0.000021027813
 96      -0.000059027840
 97      -0.000051171930
 98      -0.000359797723
 99       0.000086673901
100       0.000712908545
101       0.000610919342
102       0.009557955141
103       0.002542187547
104      -0.000840647187
105      -0.002059798193
106      -0.000007837772
107       0.000033422694
108      -0.000043144065
109       0.000007073742
110      -0.000009037323
111       0.000004171320
112      -0.000014735179
113      -0.000019107817
114       0.000042759998
115       0.000015190462
116       0.000247954594
117       0.000064783756
118      -0.000151781351
119      -0.000051840451
120      -0.000899657218
121       0.001366545605
122      -0.001083192928
123       0.000131347942
124       0.006132263624
125      -0.004983978427
126       0.001077648523
127      -0.003428898556
128       0.000062495732
129       0.000012149977
130       0.000002584204
131       0.000002000598
132       0.000106140308
133       0.000008685006
134       0.000024625558
135       0.000204052688
136       0.000527399897
137       0.000013846251
138      -0.000015023874
139      -0.000021845978
140       0.000004179754
141      -0.000014769806
142       0.000019250794
143       0.000042687352
144       0.000015304852
145       0.000248229763
146      -0.000065327665
147      -0.000151445708
148      -0.000052127345
149      -0.000900374231
150      -0.001372790711
151      -0.001075954506
152       0.000120409166
153       0.006161786730
154       0.005016808351
155       0.001055232532
156      -0.003385331249
157       0.000062395326
158      -0.000012952795
159       0.000001856513
160       0.000000947165
161      -0.000106276935
162       0.000008703293
163       0.000024764119
164       0.000203766359
165       0.000526188379
166      -0.000013696473
167      -0.000014914146
168      -0.000021965120
169       0.000019146060
170      -0.000214282059
171      -0.001158358883
172      -0.000261977793
173      -0.000005970992
174      -0.000050870924
175      -0.000062855986
176       0.000019170548
177      -0.000214333273
178      -0.001158945423
179      -0.000258963397
180       0.000006181880
181      -0.000050935746
182      -0.000062794805
183       0.551314328292
184       0.469772357516
185      -0.000000368542
186      -0.001157687786
187      -0.000781448073
188       0.013657656929
189      -0.000000405493
190       0.000156525297
191       0.000156878711
192      -0.011382351238
193       0.000002065895
194       0.001230533773
195       0.000561907128
196       0.017510552821
197      -0.000004306579
198      -0.003379752940
199      -0.001721254229
200       0.000005329590
201       0.000000004806
202      -0.000034648039
203       0.000032191022
204      -0.000000069542
 Sym=     1a
 Ene= -1.91168350361456E+01
 Spin= Alpha
 Occup= 2.000000
  1       0.551310775134
  2       0.469786898372
  3      -0.000005409688
  4      -0.000131421999
  5       0.001376866259
  6       0.013582447003
  7       0.000001014100
  8       0.000004311257
  9      -0.000189551762
 10      -0.011199593544
 11       0.000005834338
 12       0.000228100604
 13      -0.001531902100
 14       0.016845579172
 15      -0.000016364193
 16      -0.000736838719
 17       0.003959071773
 18      -0.000054733535
 19       0.000000475579
 20       0.000011754879
 21       0.000006379572
 22       0.000000012354
 23       0.000018624016
 24      -0.000179521182
 25      -0.000274082784
 26      -0.000192916039
 27      -0.000006827386
 28      -0.000002317064
 29       0.000007943280
 30       0.000018620768
 31      -0.000179618132
 32      -0.000274506824
 33      -0.000193981603
 34       0.000006760035
 35      -0.000002339057
 36       0.000007999965
 37       0.000000598172
 38       0.000011506487
 39      -0.000070010704
 40       0.000091928202
 41      -0.000639774072
 42       0.005730727476
 43      -0.000000024728
 44       0.000004323113
 45       0.000010193856
 46      -0.000000022525
 47      -0.000025814181
 48      -0.000013241001
 49       0.000000766797
 50       0.000142117298
 51      -0.000107237662
 52       0.000003037170
 53      -0.000156017055
 54      -0.000949853964
 55      -0.000023154087
 56      -0.000102637180
 57       0.006284682078
 58      -0.037712421085
 59       0.000032485187
 60       0.007864165469
 61      -0.003159344502
 62       0.000086682635
 63      -0.000000435472
 64       0.000006771547
 65       0.000019917963
 66      -0.000000153019
 67       0.000002135480
 68      -0.000011628272
 69       0.000002642284
 70       0.000004212377
 71       0.000006832781
 72       0.000089415726
 73      -0.000058780333
 74      -0.000028520190
 75      -0.000057338320
 76      -0.000048641153
 77      -0.000648094259
 78       0.000749105329
 79      -0.000212938580
 80       0.010816721167
 81      -0.003226450547
 82       0.000359504531
 83      -0.001987012764
 84       0.000046799654
 85       0.000014097014
 86      -0.000005877832
 87      -0.000016339313
 88       0.000028906292
 89       0.000002133164
 90      -0.000011616116
 91      -0.000002673435
 92       0.000004234229
 93       0.000006833404
 94       0.000089224963
 95       0.000059088262
 96      -0.000028884678
 97      -0.000056997052
 98      -0.000045999419
 99       0.000654582960
100       0.000745575655
101      -0.000208825715
102       0.010836964302
103       0.003247049270
104       0.000341837878
105      -0.001965456770
106       0.000046622972
107      -0.000014895512
108      -0.000005946864
109      -0.000016534861
110      -0.000028723529
111       0.000003943337
112      -0.000013992509
113      -0.000030491148
114       0.000016560596
115      -0.000023740226
116       0.000296591364
117       0.000087957654
118      -0.000102055093
119       0.000021944976
120      -0.002099495418
121       0.001033148482
122      -0.001376136974
123       0.000083936848
124       0.003265041604
125      -0.004801158576
126       0.000668737155
127      -0.003625241714
128       0.000000933637
129      -0.000154175129
130       0.000074608999
131      -0.000059250126
132       0.000052906165
133      -0.000000237269
134       0.000220078680
135       0.000751467297
136       0.001638117272
137      -0.000038957388
138       0.000029456520
139       0.000009198808
140       0.000003943448
141      -0.000013980252
142       0.000030734745
143       0.000016405606
144      -0.000023505108
145       0.000296457573
146      -0.000088578412
147      -0.000101748093
148       0.000021193401
149      -0.002099788373
150      -0.001040317108
151      -0.001371170970
152       0.000075221375
153       0.003237154651
154       0.004830733253
155       0.000636434926
156      -0.003593417547
157       0.000002948639
158       0.000154151594
159       0.000073468867
160      -0.000061053919
161      -0.000052778331
162      -0.000000253157
163       0.000220190356
164       0.000751232446
165       0.001638375619
166       0.000039040995
167       0.000029256701
168       0.000009469875
169       0.000045881618
170      -0.000286396100
171      -0.000205722212
172       0.000595547514
173      -0.000025037874
174      -0.000087216756
175      -0.000064064871
176       0.000046005802
177      -0.000287219487
178      -0.000205051209
179       0.000593855324
180       0.000024961060
181      -0.000087567486
182      -0.000063850220
183      -0.000123501244
184      -0.000126353568
185      -0.000000006077
186       0.000010741777
187       0.000008105563
188       0.000207900950
189       0.000000060865
190      -0.000055477952
191      -0.000053108774
192      -0.000828382607
193      -0.000000879768
194       0.000382495912
195       0.000524742115
196      -0.002630407151
197       0.000003050793
198       0.001858255229
199       0.000557363494
200      -0.000051495858
201       0.000000216470
202      -0.000032696750
203      -0.000001589938
204       0.000000122962
 Sym=     1a
 Ene= -1.02227856457668E+01
 Spin= Alpha
 Occup= 2.000000
  1      -0.000000155343
  2      -0.000005549685
  3      -0.000003039340
  4       0.000000732262
  5      -0.000000745690
  6       0.000072579242
  7       0.000020073582
  8       0.000003062742
  9       0.000004098957
 10      -0.000367523403
 11       0.000108947250
 12      -0.000012744382
 13      -0.000136543665
 14       0.002061753245
 15       0.000284141899
 16       0.000019328371
 17       0.000489426678
 18      -0.000003256914
 19       0.000009060483
 20      -0.000018773616
 21       0.000005294590
 22       0.000010285725
 23       0.000010153877
 24       0.000778545199
 25       0.000239087871
 26      -0.000714355545
 27      -0.000004152054
 28      -0.000190045180
 29      -0.000133373621
 30      -0.000196994405
 31      -0.002227921111
 32       0.002476906977
 33       0.004705341321
 34       0.000140204283
 35       0.000797339593
 36       0.000497465349
 37      -0.000000343866
 38      -0.000004200943
 39       0.000032552304
 40      -0.000099704524
 41       0.000055635280
 42       0.001827962247
 43      -0.000006198425
 44      -0.000008020537
 45      -0.000000508614
 46       0.000075791243
 47       0.000070013964
 48      -0.000003068264
 49      -0.000238037677
 50      -0.000302924121
 51      -0.000022917543
 52      -0.000773243019
 53       0.000372960984
 54       0.000338427505
 55      -0.001790891143
 56      -0.000927421466
 57       0.002714696815
 58      -0.006796361689
 59       0.005426521872
 60       0.000258262789
 61      -0.001073247022
 62      -0.000006097618
 63      -0.000117871635
 64      -0.000007243403
 65       0.000040716382
 66       0.000100435157
 67      -0.003851648621
 68      -0.003240305115
 69       0.000118880789
 70       0.000055483298
 71       0.000105365343
 72       0.000156878607
 73      -0.000672884697
 74      -0.000348069106
 75      -0.000685218576
 76      -0.000838283319
 77       0.001433788662
 78      -0.000754464684
 79       0.000250197409
 80       0.008917974343
 81      -0.001083283305
 82      -0.000082038131
 83      -0.000761860520
 84       0.000179472749
 85       0.000350163950
 86       0.000004023311
 87       0.000173289210
 88       0.000230293759
 89       0.022213194375
 90       0.018660818200
 91       0.000573404643
 92      -0.000315195895
 93      -0.000723311653
 94      -0.000388761182
 95      -0.003523923881
 96       0.001860841649
 97       0.004359058939
 98       0.000873939209
 99       0.002006009679
100       0.000501797352
101      -0.001226875160
102      -0.034105690482
103      -0.007117421450
104      -0.002879610147
105       0.003211762189
106      -0.001060866670
107       0.002076173843
108      -0.000554931858
109      -0.000971413408
110       0.001318250101
111      -0.096841235183
112      -0.079680589747
113       0.000107648678
114      -0.000003730629
115       0.000073066932
116      -0.003558620743
117      -0.000409282328
118      -0.000096759101
119      -0.000375703286
120       0.002737453313
121      -0.000013098667
122       0.001224362828
123       0.000474523677
124      -0.013236803930
125       0.000673091700
126      -0.003685155711
127      -0.002992626910
128      -0.000148473103
129      -0.000238217752
130      -0.000346528339
131       0.000039622271
132      -0.000097808225
133       0.000077751309
134      -0.000157910736
135      -0.000919430549
136      -0.000045274967
137      -0.000089964580
138       0.000022995417
139      -0.000018847423
140       0.554026779457
141       0.455898338768
142       0.000688351015
143       0.000231449953
144      -0.000398401035
145       0.019808834356
146      -0.003091760846
147      -0.000526647310
148       0.002141769889
149      -0.012783997014
150      -0.000639588165
151      -0.002767592955
152      -0.002020823787
153       0.037388998723
154       0.000807145664
155       0.012923309857
156       0.009955192580
157       0.000836000432
158      -0.001678133991
159       0.002099751322
160      -0.000239774773
161      -0.000698762862
162      -0.000242019926
163      -0.000908528256
164       0.001948951029
165      -0.002920373673
166      -0.000609569991
167      -0.000328754824
168       0.000231021263
169      -0.000001985575
170       0.000661791329
171      -0.000141661625
172      -0.002268647038
173      -0.000003441017
174       0.000265374733
175       0.000197072792
176       0.000194253422
177      -0.004413590261
178       0.003739240864
179       0.007435853963