[Molden Format]
[Title]
 Molden file created by orca_2mkl for BaseName=input

[Atoms] AU
Li   1   3         -5.6967747566         4.5407422547        -3.1618286327 
F    2   9         -2.7485758975        11.0700364920        -1.2170043904 
P    3  15         -4.5479817126         9.2228964531         0.3552445002 
O    4   8         -4.7499434010         6.8481672846        -1.2564757681 
O    5   8         -6.8025056838        10.5189196535         1.3250982133 
F    6   9         -2.5925831167         8.5201959439         2.5406251192 
[GTO]
  1 0
s   6 1.0 
      900.4600000000         0.2679367239
      134.4330000000         0.4962094663
       30.4365000000         0.8066521383
        8.6263900000         1.0079819404
        2.4833200000         0.9287511676
        0.3031790000         0.0345683875
s   3 1.0 
        4.8689000000         0.2180224620
        0.8569240000         0.5986172625
        0.2432270000        -0.0006907304
p   3 1.0 
        4.8689000000         0.3377951141
        0.8569240000         0.1877902145
        0.2432270000         0.2156379700
s   1 1.0 
        0.0635070000         0.0901625717
p   1 1.0 
        0.0635070000         0.0454430095
s   1 1.0 
        0.0243683000         0.0439570984
p   1 1.0 
        0.0243683000         0.0137237130
s   1 1.0 
        0.0074000000         0.0179818298
p   1 1.0 
        0.0074000000         0.0030937110
d   1 1.0 
        0.2000000000         0.1705189210

  2 0
s   6 1.0 
    11427.1000000000         1.4185968250
     1722.3500000000         2.6184722204
      395.7460000000         4.3085644329
      115.1390000000         5.8450501849
       33.6026000000         5.8596070538
        4.9190100000         0.7050541707
s   3 1.0 
       55.4441000000         1.6586076599
       12.6323000000         4.3959366875
        3.7175600000        -0.0064456754
p   3 1.0 
       55.4441000000         7.6473128922
       12.6323000000         8.0605926650
        3.7175600000         6.0369665653
s   1 1.0 
        1.1654500000         0.7994297883
p   1 1.0 
        1.1654500000         1.7260649974
s   1 1.0 
        0.3218920000         0.3045739318
p   1 1.0 
        0.3218920000         0.3456032493
s   1 1.0 
        0.1076000000         0.1338965218
p   1 1.0 
        0.1076000000         0.0878426496
d   1 1.0 
        1.7500000000         7.5907846161

  3 0
s   6 1.0 
    77492.4000000000         2.5852678269
    11605.8000000000         4.8357301498
     2645.9600000000         8.1930400697
      754.9760000000        12.6702236523
      248.7550000000        16.8838271513
       91.1565000000        11.8429898836
s   3 1.0 
       91.1565000000         3.3694765887
       36.2257000000         6.6052334308
       15.2113000000         1.4484060312
s   1 1.0 
        4.7941700000         2.3091128850
s   1 1.0 
        1.8079300000         1.1112104085
s   1 1.0 
        0.3568160000         0.3290359360
s   1 1.0 
        0.1147830000         0.1405459291
p   4 1.0 
      384.8430000000        22.3673995149
       90.5521000000        27.8213883675
       29.1339000000        28.2175719874
       10.8862000000        20.5224044164
p   2 1.0 
        4.3525900000         5.6308716494
        1.7770600000         1.2518607643
p   1 1.0 
        0.6970050000         0.9077890813
p   1 1.0 
        0.2535320000         0.2564372234
p   1 1.0 
        0.0684930000         0.0499456678
s   1 1.0 
        0.0348000000         0.0574241434
p   1 1.0 
        0.0348000000         0.0214246701
d   1 1.0 
        0.5500000000         1.0013935509

  4 0
s   6 1.0 
     8588.5000000000         1.2050128859
     1297.2300000000         2.2162047744
      299.2960000000         3.6274524983
       87.3771000000         4.8884523076
       25.6789000000         4.8357205177
        3.7400400000         0.5382294948
s   3 1.0 
       42.1175000000         1.3419577961
        9.6283700000         3.5871143115
        2.8533200000        -0.0051234679
p   3 1.0 
       42.1175000000         5.5840175343
        9.6283700000         5.7333656931
        2.8533200000         4.3329547351
s   1 1.0 
        0.9056610000         0.6616591794
p   1 1.0 
        0.9056610000         1.2593521004
s   1 1.0 
        0.2556110000         0.2562092156
p   1 1.0 
        0.2556110000         0.2590684413
s   1 1.0 
        0.0845000000         0.1116998588
p   1 1.0 
        0.0845000000         0.0649398041
d   1 1.0 
        1.2920000000         4.4635405283

  5 0
s   6 1.0 
     8588.5000000000         1.2050128859
     1297.2300000000         2.2162047744
      299.2960000000         3.6274524983
       87.3771000000         4.8884523076
       25.6789000000         4.8357205177
        3.7400400000         0.5382294948
s   3 1.0 
       42.1175000000         1.3419577961
        9.6283700000         3.5871143115
        2.8533200000        -0.0051234679
p   3 1.0 
       42.1175000000         5.5840175343
        9.6283700000         5.7333656931
        2.8533200000         4.3329547351
s   1 1.0 
        0.9056610000         0.6616591794
p   1 1.0 
        0.9056610000         1.2593521004
s   1 1.0 
        0.2556110000         0.2562092156
p   1 1.0 
        0.2556110000         0.2590684413
s   1 1.0 
        0.0845000000         0.1116998588
p   1 1.0 
        0.0845000000         0.0649398041
d   1 1.0 
        1.2920000000         4.4635405283

  6 0
s   6 1.0 
    11427.1000000000         1.4185968250
     1722.3500000000         2.6184722204
      395.7460000000         4.3085644329
      115.1390000000         5.8450501849
       33.6026000000         5.8596070538
        4.9190100000         0.7050541707
s   3 1.0 
       55.4441000000         1.6586076599
       12.6323000000         4.3959366875
        3.7175600000        -0.0064456754
p   3 1.0 
       55.4441000000         7.6473128922
       12.6323000000         8.0605926650
        3.7175600000         6.0369665653
s   1 1.0 
        1.1654500000         0.7994297883
p   1 1.0 
        1.1654500000         1.7260649974
s   1 1.0 
        0.3218920000         0.3045739318
p   1 1.0 
        0.3218920000         0.3456032493
s   1 1.0 
        0.1076000000         0.1338965218
p   1 1.0 
        0.1076000000         0.0878426496
d   1 1.0 
        1.7500000000         7.5907846161

[5D]
[7F]
[9G]
[MO]
 Sym=     1a
 Ene= -7.71941909710920E+01
 Spin= Alpha
 Occup= 2.000000
  1      -0.000001726867
  2      -0.000002758356
  3       0.000032020574
  4       0.000086352394
  5       0.000069375179
  6      -0.000271971361
  7      -0.000039986511
  8       0.000032399140
  9      -0.000001190129
 10      -0.000123686325
 11      -0.000004806079
 12      -0.000101379824
 13      -0.000067781053
 14      -0.000053737856
 15      -0.000000581611
 16      -0.000018561956
 17      -0.000015258830
 18       0.000004104783
 19       0.000027458911
 20       0.000078360919
 21      -0.000040839028
 22       0.000035879444
 23      -0.000001254515
 24       0.000005814950
 25       0.000008195316
 26       0.000007849727
 27      -0.000008206810
 28      -0.000057440682
 29      -0.000011120474
 30      -0.000008528602
 31       0.000012955707
 32       0.000105463495
 33      -0.000032731390
 34      -0.000047684212
 35       0.000019015815
 36      -0.000710993128
 37       0.000168909492
 38       0.000173357599
 39      -0.000173165649
 40      -0.000005049691
 41      -0.000023310301
 42      -0.000025334628
 43      -0.000002400486
 44       0.000028722605
 45      -0.419078284028
 46      -0.645957585764
 47      -0.014228863784
 48       0.004611157110
 49      -0.002463405248
 50       0.003861039192
 51      -0.000093919433
 52       0.000010129672
 53       0.000010476344
 54       0.000023903584
 55      -0.000008778326
 56      -0.000007636904
 57      -0.000017519972
 58       0.000018674300
 59       0.000017085570
 60       0.000094021726
 61       0.000039337926
 62       0.000011532074
 63       0.000324871253
 64      -0.000180364120
 65      -0.000081541902
 66       0.000746267721
 67      -0.000134290490
 68      -0.000076900136
 69      -0.000065776571
 70       0.000021217642
 71       0.000025748683
 72      -0.000061841051
 73       0.000011610791
 74       0.000036602960
 75       0.000000124270
 76      -0.000004771820
 77      -0.000000151043
 78      -0.000019170162
 79      -0.000011819217
 80      -0.000027932734
 81      -0.000005344437
 82       0.000035044562
 83       0.000019007726
 84       0.000030840984
 85       0.000073256968
 86       0.000260165090
 87       0.000199951213
 88      -0.001228276930
 89      -0.000170931877
 90      -0.000812267200
 91      -0.000580883728
 92      -0.000003805521
 93       0.000004637179
 94       0.000067967506
 95      -0.000050799187
 96       0.000007897391
 97       0.000000848363
 98      -0.000007289041
 99      -0.000034253666
100       0.000015494315
101       0.000011867035
102      -0.000021788917
103       0.000108803766
104      -0.000049336377
105      -0.000037786896
106       0.000083682384
107       0.000013942549
108      -0.000043772631
109      -0.000029675878
110      -0.000646189564
111      -0.000225601720
112       0.000129749919
113       0.000088415262
114      -0.000030164298
115      -0.000045011135
116       0.000026618953
117       0.000036334092
118      -0.000060183091
119      -0.000001281121
120       0.000005956207
121       0.000008998321
122      -0.000004347130
123       0.000010146049
124      -0.000059290392
125      -0.000012104136
126       0.000008340112
127      -0.000012904205
128       0.000115585948
129      -0.000040796660
130      -0.000000472750
131      -0.000052035590
132      -0.000748808221
133       0.000197925343
134      -0.000092336281
135       0.000217308083
136       0.000014927059
137       0.000037606281
138      -0.000012517081
139       0.000014414766
140      -0.000010929079
 Sym=     1a
 Ene= -2.46743996704760E+01
 Spin= Alpha
 Occup= 2.000000
  1       0.000035508593
  2      -0.000092521902
  3      -0.000026446335
  4      -0.000024726149
  5       0.000013251742
  6      -0.000999867513
  7      -0.000290630285
  8      -0.000118630757
  9      -0.000058804650
 10       0.001103901291
 11       0.000162713729
 12       0.000356675670
 13       0.000298651539
 14      -0.000046972040
 15      -0.000027889467
 16      -0.000002894206
 17      -0.000011240743
 18       0.000097300395
 19      -0.000000129030
 20       0.000082989577
 21       0.000020257359
 22       0.000042158407
 23       0.000737227030
 24       0.000622307380
 25      -0.000016703338
 26       0.000002487326
 27      -0.000006778617
 28       0.000145560567
 29       0.000066134031
 30      -0.000019160451
 31       0.000040571934
 32      -0.000483923702
 33      -0.000227549479
 34       0.000187154863
 35      -0.000310846007
 36       0.000793874630
 37       0.000574415471
 38      -0.000159041504
 39       0.000158798322
 40      -0.000029207929
 41      -0.000014487978
 42       0.000032890700
 43       0.000016107883
 44       0.000011498129
 45       0.000001034624
 46      -0.000007466952
 47       0.000071983785
 48      -0.000212143336
 49      -0.000014392216
 50       0.002088577071
 51       0.000002427947
 52      -0.000000915556
 53       0.000008043327
 54      -0.000021130830
 55       0.000007629808
 56      -0.000046068343
 57      -0.000040452364
 58       0.000008542613
 59       0.000098369178
 60       0.000881265914
 61      -0.000309028688
 62       0.000540855166
 63      -0.005245219404
 64       0.000882701017
 65      -0.002297001917
 66      -0.001987570144
 67       0.000568186679
 68       0.000520762320
 69       0.000575230354
 70       0.000123427013
 71       0.000394755366
 72      -0.000160186596
 73       0.000137224098
 74      -0.000081439415
 75       0.000000581258
 76      -0.000010008073
 77      -0.000008699282
 78       0.000008508813
 79      -0.000003448802
 80       0.000092684904
 81       0.000044777925
 82      -0.000030417063
 83       0.000029473722
 84      -0.000286068747
 85      -0.000284306148
 86       0.000163195679
 87      -0.000232171572
 88      -0.000880793472
 89       0.000786272549
 90      -0.001578608373
 91      -0.000815534502
 92      -0.000029585833
 93      -0.000049402612
 94      -0.000003977276
 95      -0.000018990688
 96      -0.000022325741
 97       0.000000202508
 98      -0.000005326853
 99      -0.000016495571
100       0.000011515800
101      -0.000009743477
102       0.000025348268
103       0.000080739723
104      -0.000051702663
105       0.000038113718
106       0.000271737829
107      -0.000159327416
108       0.000079025511
109      -0.000291431625
110      -0.003786936572
111      -0.000656160131
112       0.000562450960
113       0.001021508769
114      -0.000004628236
115      -0.000048876688
116       0.000025930647
117      -0.000017598313
118       0.000012646473
119       0.547690081120
120       0.471879691754
121      -0.000508147315
122       0.000180130178
123      -0.000580037967
124       0.012431358831
125      -0.000006748101
126       0.000005318705
127      -0.000041165036
128      -0.008457329701
129       0.000771166157
130      -0.000302094423
131       0.001035986335
132       0.008705176780
133      -0.001141103035
134       0.000443801436
135      -0.001920026482
136      -0.000028361885
137      -0.000060863365
138       0.000029607730
139      -0.000021719583
140       0.000018231814
 Sym=     1a
 Ene= -2.46739384778721E+01
 Spin= Alpha
 Occup= 2.000000
  1       0.000031045817
  2      -0.000082737474
  3      -0.000020764622
  4       0.000055931299
  5      -0.000022019088
  6      -0.000726260403
  7      -0.000404223059
  8       0.000084776965
  9      -0.000039423209
 10       0.001110346092
 11       0.000211406280
 12       0.000356058918
 13       0.000263983950
 14      -0.000044356657
 15      -0.000040892200
 16      -0.000007209843
 17       0.000001000552
 18      -0.000085836906
 19      -0.000007991518
 20       0.000057563531
 21      -0.000124573921
 22      -0.000011001474
 23       0.547690036443
 24       0.471878200636
 25      -0.000465237863
 26      -0.000489706961
 27       0.000402991741
 28       0.012442442461
 29       0.000002433913
 30      -0.000036009101
 31       0.000032010569
 32      -0.008498727201
 33       0.000684980281
 34       0.000879451415
 35      -0.000711493395
 36       0.008908979619
 37      -0.000987322611
 38      -0.001706356245
 39       0.001193153962
 40       0.000009044807
 41       0.000036088724
 42       0.000043471360
 43       0.000003223841
 44      -0.000050543866
 45       0.000001013946
 46      -0.000007235047
 47       0.000070054144
 48      -0.000206785070
 49      -0.000048569931
 50       0.002313410862
 51       0.000002688694
 52       0.000007777834
 53      -0.000003581571
 54      -0.000021097090
 55      -0.000042927509
 56       0.000023580534
 57      -0.000034624715
 58       0.000100594282
 59      -0.000015562627
 60       0.000791775253
 61       0.000392113147
 62      -0.000565859789
 63      -0.005519843842
 64      -0.001878231119
 65       0.002213209623
 66      -0.002095031901
 67       0.000612175080
 68       0.000773140879
 69       0.000309352625
 70      -0.000023271763
 71      -0.000218684678
 72      -0.000255324138
 73       0.000002865585
 74       0.000326143282
 75       0.000000601540
 76      -0.000010377577
 77      -0.000009736451
 78      -0.000001128684
 79       0.000011118088
 80       0.000097140867
 81       0.000046850070
 82       0.000020985541
 83      -0.000048024038
 84      -0.000295907826
 85      -0.000273649098
 86      -0.000206140701
 87       0.000273546623
 88      -0.001008405611
 89       0.001054920688
 90      -0.001235177605
 91      -0.001288355796
 92       0.000023750273
 93      -0.000004857891
 94       0.000023156185
 95       0.000016885230
 96      -0.000053526371
 97       0.000000222830
 98      -0.000006054223
 99      -0.000015278854
100      -0.000004803480
101       0.000015738705
102       0.000031993370
103       0.000075703415
104       0.000016652977
105      -0.000068919882
106       0.000241415095
107      -0.000144075588
108      -0.000227896963
109       0.000207092022
110      -0.004160890988
111      -0.000776733548
112       0.001148743952
113       0.000155276448
114      -0.000004213974
115       0.000030162024
116       0.000031267845
117      -0.000009998761
118      -0.000039289694
119      -0.000738425899
120      -0.000649085305
121      -0.000014813254
122      -0.000005616816
123       0.000007655043
124       0.000111691390
125       0.000063469767
126       0.000030113315
127      -0.000037715043
128      -0.000462468429
129      -0.000213216815
130      -0.000218159303
131       0.000299697254
132       0.000835449365
133       0.000615334237
134       0.000087211418
135      -0.000278654694
136      -0.000023779734
137       0.000012295263
138       0.000036164183
139       0.000021080463
140      -0.000005904107
 Sym=     1a
 Ene= -1.91071359297529E+01
 Spin= Alpha
 Occup= 2.000000
  1      -0.000045455776
  2       0.000016214566
  3       0.000120536793
  4       0.000385802199
  5       0.000302236710
  6      -0.005465279077
  7      -0.000831557099
  8      -0.001903536288
  9      -0.001502589024
 10       0.001473716118
 11       0.000293075898
 12       0.000820740254
 13       0.000605122344
 14      -0.000024143759
 15       0.000000752397
 16      -0.000091593135
 17      -0.000055282900
 18       0.000024346318
 19       0.000084019649
 20       0.000349009470
 21      -0.000213976222
 22       0.000107002008
 23      -0.000000476874
 24      -0.000009742662
 25       0.000000403082
 26       0.000005169972
 27       0.000002001937
 28       0.000112597309
 29      -0.000007209488
 30      -0.000034961974
 31      -0.000005841093
 32      -0.000406333634
 33       0.000182842359
 34       0.000401382369
 35      -0.000049818179
 36      -0.001834406262
 37       0.000502182385
 38       0.000197042598
 39      -0.000721620485
 40       0.000014571662
 41      -0.000000492962
 42       0.000007616075
 43       0.000021911225
 44      -0.000025953908
 45       0.000000574523
 46       0.000011702666
 47      -0.000066336171
 48       0.000070058253
 49      -0.000595576988
 50       0.007427729435
 51      -0.000006088111
 52       0.000015008989
 53       0.000010780968
 54       0.000029519578
 55      -0.000036926521
 56      -0.000027717631
 57      -0.000172378856
 58       0.000009720433
 59       0.000023397703
 60       0.000343263428
 61      -0.000865064770
 62      -0.000644147191
 63       0.000723720290
 64       0.003122200011
 65       0.002561565807
 66      -0.002366054644
 67      -0.000260181531
 68       0.000479356638
 69       0.000284044199
 70      -0.000007109032
 71       0.000018518087
 72       0.000070214864
 73      -0.000026182995
 74       0.000037986553
 75       0.551324060073
 76       0.469738799520
 77       0.000022827300
 78       0.000753925613
 79       0.000484855842
 80       0.013669630699
 81      -0.000067238256
 82      -0.000164233662
 83      -0.000143010654
 84      -0.011121630518
 85       0.000224797796
 86      -0.000436120053
 87      -0.000110657306
 88       0.012714685764
 89      -0.000955454856
 90      -0.001484054003
 91      -0.001605494281
 92       0.000003369711
 93      -0.000018095940
 94      -0.000052511481
 95       0.000031040679
 96      -0.000032327135
 97      -0.000010219126
 98      -0.000021492950
 99      -0.000013261312
100       0.000014308125
101       0.000010049280
102       0.000121369856
103       0.000066078240
104      -0.000074858764
105      -0.000052883712
106      -0.000292877561
107      -0.000215752671
108       0.000382949126
109       0.000270193160
110      -0.003445809299
111      -0.001344487154
112       0.000071281942
113       0.000019819483
114      -0.000004361397
115       0.000009804605
116      -0.000037951100
117       0.000035002312
118       0.000015620978
119      -0.000000449040
120      -0.000009296755
121       0.000000048581
122       0.000004800495
123       0.000004778700
124       0.000106719742
125      -0.000005687042
126      -0.000022092469
127      -0.000032106014
128      -0.000374827489
129       0.000177639583
130       0.000119519503
131       0.000374340785
132      -0.002035304327
133       0.000619938766
134      -0.000646366039
135       0.000371625165
136      -0.000022278147
137      -0.000023391185
138      -0.000009764462
139      -0.000001613616
140      -0.000009844739
 Sym=     1a
 Ene= -1.90704704484271E+01
 Spin= Alpha
 Occup= 2.000000
  1      -0.000052394320
  2       0.000151710112
  3      -0.000021656714
  4      -0.000173506475
  5      -0.000111670196
  6       0.001721522652
  7      -0.000170390140
  8       0.000023601505
  9       0.000286284053
 10      -0.001595396684
 11      -0.000014681619
 12      -0.000417668573
 13      -0.000407552154
 14       0.000092593666
 15      -0.000056367812
 16      -0.000002142791
 17       0.000018339157
 18       0.000016388162
 19      -0.000048027604
 20      -0.000184712854
 21       0.000172004226
 22      -0.000080040626
 23       0.000000053413
 24       0.000005212601
 25      -0.000027491014
 26       0.000014987331
 27       0.000008408361
 28      -0.000060232769
 29       0.000117837290
 30      -0.000057158113
 31      -0.000041209876
 32       0.000067597939
 33      -0.000575985533
 34       0.000131833734
 35       0.000281612974
 36       0.004217619399
 37       0.000142224867
 38      -0.001602441248
 39       0.000568612996
 40      -0.000000896323
 41      -0.000037586951
 42      -0.000006618517
 43       0.000032106887
 44       0.000001910354
 45      -0.000000842196
 46      -0.000013134209
 47       0.000072876863
 48      -0.000069304704
 49       0.000380368977
 50      -0.006904938701
 51      -0.000012110742
 52       0.000009254204
 53       0.000006189147
 54       0.000019971507
 55      -0.000020998281
 56      -0.000012429721
 57       0.000155089465
 58      -0.000029386102
 59      -0.000039036537
 60       0.000746399927
 61      -0.000744059304
 62      -0.000501468627
 63      -0.011121611883
 64       0.007639622409
 65       0.005766974771
 66       0.003041831634
 67       0.000756682566
 68      -0.001247399594
 69      -0.000925758004
 70       0.000043983851
 71       0.000053148740
 72      -0.000005056031
 73      -0.000093345710
 74       0.000062171319
 75      -0.000010650075
 76       0.000002443343
 77      -0.000034724028
 78      -0.000004959386
 79      -0.000003390305
 80      -0.000114915168
 81       0.000148401856
 82       0.000016931140
 83       0.000013210772
 84       0.000343161676
 85      -0.000676796691
 86      -0.000110526044
 87      -0.000105252095
 88       0.008994674993
 89       0.002854575452
 90       0.003971593938
 91       0.002486070932
 92      -0.000003441886
 93      -0.000023072469
 94       0.000031802010
 95      -0.000001599086
 96      -0.000038019155
 97      -0.551326895847
 98      -0.469775979577
 99      -0.001039038432
100       0.000605047813
101       0.000458931444
102      -0.013533026991
103       0.000023631424
104      -0.000030362138
105      -0.000030565276
106       0.011024523038
107       0.001612676818
108      -0.000826089005
109      -0.000628677725
110      -0.018823838809
111      -0.003938472367
112       0.002215496974
113       0.001639659540
114      -0.000020111542
115      -0.000032478832
116       0.000009587810
117       0.000033586562
118      -0.000037723524
119      -0.000000028997
120       0.000004459733
121      -0.000027534777
122       0.000012185428
123       0.000011918518
124      -0.000052309762
125       0.000118078821
126      -0.000055020675
127      -0.000043309224
128       0.000030904107
129      -0.000577532244
130       0.000291329913
131       0.000060032167
132       0.004231243073
133       0.000057121844
134      -0.000081033372
135      -0.001744180894
136      -0.000020876512
137       0.000012122085
138      -0.000012783896
139       0.000023318205
140      -0.000033037124
 Sym=     1a
 Ene= -6.67281264428703E+00
 Spin= Alpha
 Occup= 2.000000
  1      -0.000001506956
  2       0.000102127378
  3      -0.000449884740
  4      -0.001283312089
  5      -0.001024839512
  6       0.004545030693
  7       0.000726660605
  8      -0.000485369529
  9       0.000055786109
 10       0.001267568021
 11      -0.000004907251
 12       0.001337573521
 13       0.000867417072
 14       0.000883165993
 15       0.000006378288
 16       0.000311979424
 17       0.000256790902
 18      -0.000074468997
 19      -0.000377940963
 20      -0.001165064164
 21       0.000616036931
 22      -0.000500621758
 23      -0.000055350012
 24      -0.000082409977
 25      -0.000127051167
 26      -0.000115429633
 27       0.000112223691
 28       0.000515737813
 29       0.000199434078
 30       0.000127986035
 31      -0.000175488185
 32      -0.000916393286
 33       0.000162648945
 34       0.000475098198
 35      -0.000115814529
 36       0.012316142652
 37      -0.002727954817
 38      -0.002874513817
 39       0.002890319984
 40       0.000035873775
 41       0.000166033436
 42       0.000187296185
 43       0.000021738286
 44      -0.000211930884
 45      -0.120097018559
 46      -0.312527642871
 47       0.513197195486
 48       0.593269847288
 49       0.066729364156
 50      -0.072371557052
 51       0.003264820310
 52      -0.000235549047
 53      -0.000277992259
 54       0.006644852245
 55      -0.000386633500
 56      -0.000492785112
 57       0.000923089915
 58      -0.000272329984
 59      -0.000266041887
 60      -0.000479920853
 61      -0.000609866027
 62      -0.000246657153
 63      -0.005686864161
 64       0.003277147996
 65       0.001677385276
 66      -0.010788518075
 67       0.002064627086
 68       0.000789466937
 69       0.000714524895
 70      -0.000037495939
 71      -0.000002147061
 72       0.000277891046
 73      -0.000189612468
 74      -0.000034187461
 75      -0.000106770852
 76      -0.000092481436
 77      -0.000027047324
 78       0.000050711611
 79       0.000023489884
 80       0.000089986849
 81       0.000182407405
 82       0.000192069761
 83       0.000186543496
 84       0.001223586919
 85      -0.001128678133
 86      -0.003325962324
 87      -0.002578218955
 88       0.020930531147
 89       0.002748231210
 90       0.013344594131
 91       0.009479321620
 92       0.000014600736
 93       0.000010494010
 94      -0.000169725568
 95       0.000146335793
 96       0.000003594539
 97      -0.000153864085
 98      -0.000155977808
 99       0.000160322967
100      -0.000062877101
101      -0.000048921152
102       0.000037586882
103      -0.000365159509
104       0.000087723754
105       0.000073528233
106       0.001327757458
107       0.000455302857
108       0.000184776389
109       0.000100321229
110       0.010881502780
111       0.004000483532
112      -0.002155675259
113      -0.001496473811
114      -0.000006422212
115      -0.000015303344
116      -0.000003675196
117       0.000016677245
118      -0.000018431029
119      -0.000056656110
120      -0.000085226346
121      -0.000137006949
122       0.000055828118
123      -0.000142509691
124       0.000540389614
125       0.000207387915
126      -0.000105506587
127       0.000174999189
128      -0.001053619300
129       0.000257023418
130       0.000065282456
131       0.000510358907
132       0.012885620948
133      -0.003187702977
134       0.001543398367
135      -0.003613537708
136      -0.000111714348
137      -0.000272446615
138       0.000090677920
139      -0.000101392199
140       0.000074013299
 Sym=     1a
 Ene= -4.83641208087313E+00
 Spin= Alpha
 Occup= 2.000000
  1      -0.000000205012
  2      -0.000000028629
  3       0.000010657905
  4       0.000030271667
  5       0.000020185437
  6       0.000232792732
  7       0.000045787942
  8       0.000081425645
  9       0.000115438526
 10      -0.000037933487
 11      -0.000017204813
 12      -0.000024488107
 13      -0.000037489890
 14       0.000003260189
 15       0.000004822373
 16      -0.000029253441
 17       0.000052577535
 18      -0.000068794167
 19      -0.000001577625
 20      -0.000001575823
 21      -0.000054432504
 22       0.000024140421
 23       0.000179133695
 24       0.000273954838
 25       0.000201958133
 26       0.000173008632
 27      -0.000132597469
 28      -0.000792872069
 29       0.000381873962
 30       0.000368588057
 31      -0.000266039240
 32      -0.000167120971
 33       0.000064468515
 34      -0.000184879101
 35       0.000173817713
 36       0.000278960435
 37       0.000021863834
 38       0.000378320943
 39      -0.000459630361
 40       0.000041707600
 41       0.000066451952
 42       0.000039952514
 43      -0.000039173534
 44      -0.000095002054
 45       0.000001224361
 46       0.000003241464
 47      -0.000006152500
 48      -0.000002697115
 49      -0.000017689277
 50       0.000035293383
 51       0.012419696733
 52      -0.230876329423
 53       0.336621616472
 54       0.020714063001
 55      -0.385117714135
 56       0.561504401289
 57       0.001663375594
 58      -0.030828883001
 59       0.044957982047
 60      -0.000112251604
 61       0.002080780462
 62      -0.003013835528
 63       0.000146505676
 64      -0.001594294591
 65       0.002328448958
 66      -0.000001466881
 67      -0.000012951564
 68       0.000280931059
 69      -0.000388815236
 70       0.000015296143
 71       0.001207351516
 72       0.000076230994
 73       0.000106396491
 74      -0.000820412949
 75      -0.000001057176
 76      -0.000001492113
 77       0.000002845016
 78      -0.000041857387
 79       0.000063707991
 80       0.000003019830
 81       0.000004068515
 82      -0.000083351301
 83       0.000124207451
 84       0.000007357163
 85       0.000017031626