[Molden Format]
[Title]
 Molden file created by orca_2mkl for BaseName=input

[Atoms] AU
Li   1   3         -6.9216966959         6.1236057221        -1.8457300884 
F    2   9         -2.9368655758        11.3410966956        -0.9457197725 
P    3  15         -4.1267655987         8.8381580202         0.0298619529 
O    4   8         -3.3782617512         6.6347606821        -1.5715253416 
O    5   8         -6.9358091132         9.0399150763         0.2494210147 
F    6   9         -2.8389658334         8.7434218855         2.6693512762 
[GTO]
  1 0
s   6 1.0 
     6269.2628010000         0.2601467437
      940.3161243100         0.4858358392
      214.2210752800         0.8341193254
       60.7598401840         1.3244574254
       19.9151520320         1.8815769487
        7.3171509797         2.1952005029
s   2 1.0 
        2.9724674216         0.7262181058
        1.2639852314         0.4944919164
s   1 1.0 
        0.5142748995         0.4328192700
s   1 1.0 
        0.0770308859         0.1042098478
s   1 1.0 
        0.0289388964         0.0500059366
p   1 1.0 
        0.4000000000         0.4534350390
p   1 1.0 
        0.0600000000         0.0423281367
p   1 1.0 
        3.3270000000         6.4048076130

  2 0
s   6 1.0 
    35479.1004410000         1.0351654302
     5318.4728983000         1.9331170875
     1210.4810975000         3.3081679067
      342.8551814000         5.1904360265
      112.0194318100         7.1453715076
       40.7147402480         7.7853597648
s   2 1.0 
       16.0396781110         3.6156464853
        6.5038186740         1.1649992517
s   1 1.0 
        1.5440477509         0.9872011158
s   1 1.0 
        0.6122345286         0.4932856214
s   1 1.0 
        0.2402797970         0.2445952588
p   4 1.0 
       80.2339004830         4.2174077507
       18.5940107430         4.7174264054
        5.6867902653         4.0849101385
        1.9511006294         2.2998974220
p   1 1.0 
        0.6697021130         0.8635593174
p   1 1.0 
        0.2165130041         0.2105208284
d   1 1.0 
        3.1070000000        20.7284714039
d   1 1.0 
        0.8550000000         2.1672588463
f   1 1.0 
        1.9170000000        24.6547062912

  3 0
s   7 1.0 
    52426.9992330000         1.3212792146
     7863.2660552000         2.4617576015
     1789.5227333000         4.1682597561
      506.2730016500         6.3159100221
      164.6069854600         7.8855635848
       58.3919187220         6.7611895652
       21.6436632010         2.4503453444
s   3 1.0 
       99.0138376200         1.9732022792
       30.5504398170         3.5685473278
        5.4537087661        -3.0179252192
s   2 1.0 
        2.6503362563         1.0100297906
        1.2726688867         0.2897277443
s   1 1.0 
        0.3164500520         0.3007038377
s   1 1.0 
        0.1141746694         0.1399869058
p   5 1.0 
      472.2721924800        11.4356014241
      111.5888275600        14.8375861284
       35.4459364180        16.0017708610
       12.9907768750        12.8297404423
        5.0486221658         6.5532023278
p   1 1.0 
        1.9934049566         3.3762492844
p   1 1.0 
        0.6652728443         0.8564259801
p   1 1.0 
        0.2551683213         0.2585077297
p   1 1.0 
        0.0903577623         0.0706149932
d   2 1.0 
        3.1200000000         3.8292136668
        0.6480000000         1.2233911243
d   1 1.0 
        0.2180000000         0.1982754514
f   1 1.0 
        0.4520000000         0.9551279577

  4 0
s   6 1.0 
    27032.3826310000         0.8598581479
     4052.3871392000         1.6055305368
      922.3272271000         2.7458778516
      261.2407098900         4.2987674426
       85.3546413510         5.8797663284
       31.0350352450         6.3163983216
s   2 1.0 
       12.2608607280         2.9812147522
        4.9987076005         0.9419559635
s   1 1.0 
        1.1703108158         0.8019291610
s   1 1.0 
        0.4647474099         0.4011648062
s   1 1.0 
        0.1850453636         0.2010799406
p   4 1.0 
       63.2749548010         3.0572017144
       14.6270493790         3.3844839414
        4.4501223456         2.9474262132
        1.5275799647         1.7118271494
p   1 1.0 
        0.5293511794         0.6436057926
p   1 1.0 
        0.1747842127         0.1610897254
d   1 1.0 
        2.3140000000        12.3767310624
d   1 1.0 
        0.6450000000         1.3234257612
f   1 1.0 
        1.4280000000        12.7097950062

  5 0
s   6 1.0 
    27032.3826310000         0.8598581479
     4052.3871392000         1.6055305368
      922.3272271000         2.7458778516
      261.2407098900         4.2987674426
       85.3546413510         5.8797663284
       31.0350352450         6.3163983216
s   2 1.0 
       12.2608607280         2.9812147522
        4.9987076005         0.9419559635
s   1 1.0 
        1.1703108158         0.8019291610
s   1 1.0 
        0.4647474099         0.4011648062
s   1 1.0 
        0.1850453636         0.2010799406
p   4 1.0 
       63.2749548010         3.0572017144
       14.6270493790         3.3844839414
        4.4501223456         2.9474262132
        1.5275799647         1.7118271494
p   1 1.0 
        0.5293511794         0.6436057926
p   1 1.0 
        0.1747842127         0.1610897254
d   1 1.0 
        2.3140000000        12.3767310624
d   1 1.0 
        0.6450000000         1.3234257612
f   1 1.0 
        1.4280000000        12.7097950062

  6 0
s   6 1.0 
    35479.1004410000         1.0351654302
     5318.4728983000         1.9331170875
     1210.4810975000         3.3081679067
      342.8551814000         5.1904360265
      112.0194318100         7.1453715076
       40.7147402480         7.7853597648
s   2 1.0 
       16.0396781110         3.6156464853
        6.5038186740         1.1649992517
s   1 1.0 
        1.5440477509         0.9872011158
s   1 1.0 
        0.6122345286         0.4932856214
s   1 1.0 
        0.2402797970         0.2445952588
p   4 1.0 
       80.2339004830         4.2174077507
       18.5940107430         4.7174264054
        5.6867902653         4.0849101385
        1.9511006294         2.2998974220
p   1 1.0 
        0.6697021130         0.8635593174
p   1 1.0 
        0.2165130041         0.2105208284
d   1 1.0 
        3.1070000000        20.7284714039
d   1 1.0 
        0.8550000000         2.1672588463
f   1 1.0 
        1.9170000000        24.6547062912

[5D]
[7F]
[9G]
[MO]
 Sym=     1a
 Ene= -7.72011619545069E+01
 Spin= Alpha
 Occup= 2.000000
  1      -0.000000086080
  2      -0.000002901551
  3       0.000017642955
  4      -0.000367364236
  5      -0.000185074642
  6      -0.000016295980
  7      -0.000015817606
  8      -0.000010956242
  9      -0.000174790909
 10      -0.000169729668
 11      -0.000117336390
 12       0.000004364905
 13       0.000004233672
 14       0.000002932911
 15       0.000009383137
 16      -0.000038998949
 17       0.000273285961
 18      -0.000280684183
 19      -0.001266437072
 20      -0.000059600141
 21      -0.000139556930
 22       0.000067568025
 23       0.000280525879
 24       0.000643852671
 25      -0.000300697689
 26       0.000238614468
 27       0.000463175761
 28      -0.000145311785
 29      -0.000035248376
 30      -0.000025194342
 31      -0.000056643229
 32      -0.000054608315
 33       0.000066162229
 34       0.000164006358
 35       0.000115139008
 36       0.000258216062
 37       0.000251117618
 38      -0.000306582041
 39       0.000031198378
 40      -0.000022659751
 41      -0.000014242188
 42       0.000037129235
 43      -0.000040369065
 44       0.000066600641
 45       0.000015395616
 46       0.998381448017
 47      -0.031044437143
 48      -0.012120614993
 49       0.005931099428
 50       0.005336003981
 51       0.000042988214
 52       0.000041751336
 53       0.000028783453
 54       0.000030059145
 55       0.000029123786
 56       0.000020239293
 57      -0.000071942342
 58      -0.000069872099
 59      -0.000048404076
 60      -0.000909340227
 61      -0.000882723651
 62      -0.000609797897
 63      -0.000573495417
 64      -0.000557119426
 65      -0.000384455604
 66      -0.000193029423
 67      -0.000114729150
 68       0.000301033803
 69       0.000138134891
 70      -0.000134255732
 71      -0.000514234983
 72      -0.000302041480
 73       0.000802922986
 74       0.000367361998
 75      -0.000353098518
 76       0.000545463245
 77       0.000801899171
 78      -0.000369880215
 79       0.000837523924
 80       0.000152502459
 81       0.001102247629
 82      -0.000257335799
 83       0.000016732539
 84      -0.000066568580
 85       0.000707475925
 86      -0.001767228653
 87      -0.002845135817
 88      -0.000069590073
 89       0.000199120839
 90       0.000144749229
 91       0.000488891384
 92      -0.001471553690
 93      -0.001069138429
 94       0.000232585213
 95      -0.000853913999
 96      -0.000619352756
 97      -0.000003449610
 98      -0.000023739842
 99       0.000072394704
100      -0.000041081653
101      -0.000032535279
102       0.000016775759
103       0.000225770029
104      -0.000692321472
105       0.000421118179
106       0.000310709866
107       0.000057039260
108       0.000007058504
109      -0.000050195410
110       0.000101257740
111       0.000089875233
112       0.000058251483
113      -0.000053013600
114       0.000016731845
115      -0.000066568007
116       0.000707444595
117      -0.001766956041
118      -0.002844773524
119       0.000254210260
120      -0.000019824022
121      -0.000020959753
122      -0.001873844930
123       0.000126114009
124       0.000140247704
125      -0.001078301688
126       0.000032277645
127       0.000051846964
128      -0.000046353026
129      -0.000012371575
130       0.000003885614
131       0.000078224674
132      -0.000011268317
133       0.000442648689
134       0.000112149234
135      -0.000011379020
136      -0.000765322147
137       0.000099257716
138      -0.000033673161
139       0.000098809636
140      -0.000002410791
141       0.000014297530
142       0.000007921865
143       0.000135118846
144      -0.000030264678
145       0.000009378471
146      -0.000038976815
147       0.000272990617
148      -0.000279775528
149      -0.001265647553
150      -0.000065459801
151       0.000017974302
152      -0.000151546801
153       0.000307103057
154      -0.000072304837
155       0.000695060729
156       0.000255176345
157       0.000016709107
158       0.000476302141
159       0.000079861022
160       0.000075520557
161      -0.000008195722
162       0.000017152917
163      -0.000002343958
164      -0.000366405077
165      -0.000348965819
166       0.000034949229
167      -0.000079746246
168       0.000009172151
169       0.000040203827
170       0.000082972316
171      -0.000011303885
172       0.000022825255
173       0.000003507234
174      -0.000013542724
175      -0.000003996906
 Sym=     1a
 Ene= -2.47069807331846E+01
 Spin= Alpha
 Occup= 2.000000
  1       0.000015254473
  2      -0.000072158094
  3       0.000150264006
  4      -0.000179644316
  5      -0.000151405115
  6       0.000037128012
  7       0.000035158745
  8       0.000025958458
  9      -0.000142500737
 10      -0.000308988179
 11       0.000129552912
 12      -0.000002379138
 13      -0.000002639784
 14      -0.000001160999
 15      -0.425309462607
 16      -0.648964004337
 17      -0.033370319411
 18       0.020034314411
 19      -0.011242982200
 20       0.000450250089
 21       0.000948521014
 22      -0.000370284534
 23      -0.000693002828
 24      -0.001429040818
 25       0.000529396388
 26       0.001031846720
 27       0.002049296091
 28      -0.000686278533
 29       0.000025609545
 30       0.000018678700
 31       0.000050599003
 32       0.000046461606
 33      -0.000055763994
 34      -0.000063418942
 35      -0.000045421132
 36      -0.000127532204
 37      -0.000117048786
 38       0.000141099201
 39      -0.000030321964
 40       0.000010874020
 41       0.000016781906
 42      -0.000029713994
 43       0.000033869259
 44      -0.000052834681
 45      -0.000012038598
 46      -0.000053242343
 47       0.000162985316
 48       0.000400254463
 49      -0.000660540391
 50       0.007658082417
 51      -0.000031454852
 52      -0.000068093105
 53       0.000028250493
 54       0.000149827109
 55       0.000322696310
 56      -0.000132318020
 57      -0.000164814601
 58      -0.000388477510
 59       0.000188879917
 60      -0.000129280561
 61       0.000141283269
 62      -0.000438070867
 63       0.000515489070
 64       0.001704335282
 65      -0.001237146693
 66       0.000193581625
 67       0.000152681039
 68       0.000307743505
 69       0.000292100906
 70      -0.000338345326
 71      -0.000055635133
 72      -0.000138453330
 73       0.000220356392
 74       0.000177380899
 75      -0.000322501957
 76      -0.000248791056
 77       0.000315396952
 78       0.000064843837
 79      -0.000242685530
 80       0.000446618384
 81      -0.000443136364
 82      -0.000212049437
 83      -0.000002690103
 84       0.000016176743
 85      -0.000121741370
 86       0.000587071133
 87      -0.002474315165
 88      -0.000007497611
 89       0.000025923224
 90       0.000012716141
 91      -0.000004028807
 92      -0.000147025840
 93      -0.000018849868
 94      -0.000028832696
 95      -0.001095569924
 96      -0.000284506989
 97      -0.000012728676
 98       0.000006299516
 99       0.000014384273
100      -0.000016997819
101       0.000000650065
102       0.000096421419
103      -0.000024931093
104      -0.000052995733
105       0.000142517111
106      -0.000021800550
107       0.000016789257
108       0.000021979523
109       0.000021960230
110       0.000004816780
111      -0.000009733788
112       0.000005449898
113      -0.000032023625
114      -0.000002698626
115       0.000016225314
116      -0.000121863373
117       0.000585930680
118      -0.002474397402
119       0.000029027185
120       0.000001204879
121      -0.000005997845
122      -0.000126430325
123      -0.000064970556
124       0.000044004634
125      -0.001024828092
126      -0.000420850428
127       0.000225076953
128      -0.000008184797
129      -0.000006441908
130       0.000004027643
131       0.000016736082
132       0.000016796381
133       0.000061616933
134       0.000066183595
135       0.000013807262
136      -0.000083857605
137      -0.000133913105
138      -0.000001047101
139       0.000020948576
140      -0.000007790167
141       0.000026226800
142       0.000018747914
143      -0.000001212669
144       0.000029008475
145       0.003944015034
146       0.006027428343
147       0.000269297505
148      -0.000040985749
149      -0.000808504230
150      -0.000013533074
151      -0.000013153248
152      -0.000009226713
153       0.000040439701
154       0.000002564872
155       0.000076011556
156      -0.000052235987
157      -0.000246117678
158       0.000221619947
159      -0.000000458986
160      -0.000007119461
161       0.000015899829
162       0.000013972585
163      -0.000024303392
164      -0.000026129258
165       0.000021843034
166      -0.000008808628
167      -0.000031621178
168       0.000084054443
169       0.000017777450
170       0.000007880746
171      -0.000006923799
172       0.000012241455
173      -0.000014345511
174       0.000012461824
175       0.000006002244
 Sym=     1a
 Ene= -2.47069478610264E+01
 Spin= Alpha
 Occup= 2.000000
  1      -0.000015549606
  2       0.000073548478
  3      -0.000153120879
  4       0.000182623423
  5       0.000154371502
  6      -0.000037810745
  7      -0.000037451704
  8      -0.000024333247
  9       0.000157208584
 10      -0.000014722362
 11       0.000326848977
 12       0.000002460599
 13       0.000002052625
 14       0.000002083363
 15       0.003946221730
 16       0.006012034983
 17       0.000349613413
 18      -0.000330601494
 19       0.001018097373
 20       0.000005125735
 21      -0.000004357088
 22       0.000015889935
 23      -0.000024982130
 24      -0.000047375019
 25       0.000013470683
 26       0.000047004724
 27      -0.000168384820
 28       0.000314990764
 29       0.000017223277
 30       0.000021822558
 31      -0.000009657229
 32      -0.000004129419
 33       0.000015026518
 34      -0.000032533925
 35      -0.000073460612
 36      -0.000014029765
 37      -0.000003590368
 38      -0.000050900872
 39      -0.000017818949
 40      -0.000018376048
 41       0.000003597082
 42      -0.000012247931
 43       0.000009765356
 44      -0.000003797391
 45      -0.000004402169
 46       0.000054216965
 47      -0.000165970474
 48      -0.000407514931
 49       0.000673208247
 50      -0.007803705693
 51       0.000034777111
 52      -0.000002985636
 53       0.000071833580
 54      -0.000165510722
 55       0.000012685504
 56      -0.000339794658
 57       0.000184774681
 58      -0.000043894196
 59       0.000418228966
 60       0.000111041563
 61       0.000370252144
 62      -0.000271336918
 63      -0.000612390262
 64       0.000583615213
 65      -0.001968582087
 66       0.000428088663
 67       0.000391736132
 68      -0.000049868985
 69       0.000092387700
 70      -0.000027900290
 71       0.000218382632
 72       0.000282870618
 73      -0.000155942155
 74      -0.000078156286
 75       0.000231259664
 76       0.000342261274
 77       0.000661382459
 78      -0.000071864070
 79       0.000093367567
 80      -0.000048051580
 81      -0.000292889843
 82       0.000029676729
 83       0.000002752084
 84      -0.000016536741
 85       0.000124275740
 86      -0.000597448174
 87       0.002520665178
 88       0.000007288296
 89      -0.000020408860
 90      -0.000020849043
 91       0.000007466891
 92       0.000067470431
 93       0.000133761713
 94       0.000046608841
 95       0.000640714244
 96       0.000950072562
 97      -0.000009823410
 98       0.000001225634
 99      -0.000023136404
100       0.000004506911
101      -0.000007006785
102       0.000113483950
103       0.000017216155
104       0.000135808472
105      -0.000023196775
106       0.000035207829
107       0.000018628207
108      -0.000005111595
109       0.000031158245
110      -0.000020663334
111       0.000016842866
112      -0.000015505882
113      -0.000007720748
114       0.000002752630
115      -0.000016561597
116       0.000124577729
117      -0.000599095464
118       0.002521621070
119      -0.000029752314
120       0.000004705473
121      -0.000001840054
122       0.000131217535
123      -0.000016557551
124       0.000070012468
125       0.001062507078
126      -0.000045391668
127       0.000430804254
128       0.000013497750
129      -0.000016600627
130      -0.000003032327
131      -0.000015298601
132      -0.000000335607
133      -0.000046376342
134       0.000141017418
135      -0.000000024610
136       0.000106037516
137      -0.000012589142
138      -0.000036890180
139       0.000008385194
140       0.000000019201
141       0.000011329796
142      -0.000003768985
143      -0.000026142431
144       0.000010308935
145       0.425309633479
146       0.648963663736
147       0.033371402495
148      -0.020037683827
149       0.011262774795
150      -0.000487226119
151       0.000036675996
152      -0.000999681351
153       0.000747029548
154      -0.000027932712
155       0.001495225998
156      -0.001107820517
157      -0.000025749095
158      -0.002128003269
159       0.000067581323
160       0.000063102229
161      -0.000011463905
162       0.000011557827
163       0.000000658893
164      -0.000169503395
165      -0.000158923230
166       0.000029422234
167      -0.000028069991
168      -0.000003556853
169       0.000035401131
170       0.000065532216
171      -0.000006274423
172       0.000024358264
173      -0.000001260487
174      -0.000005961642
175      -0.000000649944
 Sym=     1a
 Ene= -1.91033142435432E+01
 Spin= Alpha
 Occup= 2.000000
  1       0.000028303372
  2      -0.000172245868
  3       0.000576743735
  4       0.000757247278
  5      -0.000334374856
  6       0.000361675875
  7       0.000225963381
  8       0.000152813950
  9       0.000316998866
 10      -0.000053747257
 11      -0.000046948007
 12       0.000014024461
 13      -0.000007312606
 14      -0.000005625400
 15      -0.000001790452
 16       0.000016703258
 17      -0.000147621419
 18       0.000587202798
 19      -0.002152790739
 20      -0.000022905245
 21      -0.000011855815
 22       0.000026765649
 23       0.000072059867
 24       0.000069796375
 25      -0.000078973304
 26       0.000114325632
 27       0.000835225993
 28       0.000116802665
 29      -0.000008889786
 30       0.000022675667
 31      -0.000018738195
 32       0.000009243803
 33       0.000012687270
 34       0.000047310302
 35      -0.000076896068
 36       0.000047464216
 37       0.000001005678
 38      -0.000046073952
 39       0.000002663750
 40       0.000004599477
 41      -0.000006371985
 42       0.000003266956
 43       0.000006028992
 44       0.000007657631
 45      -0.000001301855
 46      -0.000091160383
 47       0.000256882800
 48       0.000794332677
 49      -0.001633539865
 50       0.008158327187
 51      -0.000014620468
 52       0.000034741413
 53       0.000025332989
 54       0.000102855556
 55      -0.000266838084
 56      -0.000194345220
 57      -0.000142591808
 58       0.000422428052
 59       0.000307769638
 60      -0.001153257454
 61       0.002069862580
 62       0.001512749987
 63       0.000317702879
 64      -0.001674378528
 65      -0.001210085942
 66      -0.000001998148
 67       0.000319305741
 68      -0.000828871111
 69       0.000538340040
 70       0.000442649515
 71      -0.000033010727
 72       0.000482670940
 73      -0.001491437408
 74       0.001022457301
 75       0.000673646513
 76      -0.000336917915
 77       0.000111604970
 78       0.000257277170
 79      -0.000493410406
 80      -0.000606464744
 81      -0.000182022137
 82       0.000229689129
 83      -0.435007217722
 84      -0.639553825286
 85      -0.034829605021
 86       0.024310468667
 87      -0.012450748299
 88       0.000683886959
 89      -0.001283640737
 90      -0.000938919315
 91      -0.001262377541
 92       0.002687910534
 93       0.001961862043
 94       0.001301220919
 95      -0.001774901601
 96      -0.001308144121
 97      -0.000013390280
 98       0.000054239356
 99      -0.000161094802
100       0.000127930204
101       0.000076797620
102       0.000038240635
103      -0.000239289712
104       0.000703338369
105      -0.000523117427
106      -0.000336426029
107      -0.000101963197
108      -0.000032325710
109       0.000067875141
110      -0.000139330952
111      -0.000097167449
112      -0.000092020388
113       0.000048676121
114      -0.008042034649
115      -0.011788855203
116      -0.000846685974
117       0.001141810527
118      -0.003722576159
119      -0.000003929885
120       0.000062566408
121       0.000044808128
122      -0.000173224032
123      -0.000169127222
124      -0.000116558013
125      -0.001400649338
126       0.000732833197
127       0.000563122983
128      -0.000001974339
129       0.000011131565
130      -0.000031819938
131       0.000024198680
132       0.000015655413
133       0.000045895758
134      -0.000003055824
135       0.000089722490
136      -0.000139734583
137      -0.000010037984
138       0.000010024111
139       0.000011263834
140      -0.000000464451
141       0.000000477756
142       0.000006376614
143       0.000017026734
144       0.000010331757
145      -0.000001796912
146       0.000016790661
147      -0.000148090313
148       0.000587202131
149      -0.002148394232
150      -0.000023968090
151       0.000020981658
152      -0.000018678434
153       0.000075971057
154      -0.000050534711
155       0.000087787178
156       0.000131311318
157       0.000379266705
158       0.000747220016
159       0.000005258443
160       0.000004794257
161      -0.000014011840
162       0.000016603982
163       0.000025974876
164      -0.000040328952
165      -0.000020000575
166       0.000015805260
167      -0.000047001103
168      -0.000089725029
169       0.000003682972
170       0.000003090714
171       0.000001671495
172       0.000006468793
173       0.000005827683
174       0.000008694337
175      -0.000002133558
 Sym=     1a
 Ene= -1.91032575950245E+01
 Spin= Alpha
 Occup= 2.000000
  1       0.000027255284
  2      -0.000165895408
  3       0.000555486678
  4       0.000730185160
  5      -0.000322024233
  6       0.000196334948
  7       0.000320464193
  8       0.000225108541
  9      -0.000133652926
 10       0.000245418325
 11       0.000179878172
 12      -0.000011934240
 13       0.000010155553
 14       0.000007591122
 15      -0.000001731234
 16       0.000016154632
 17      -0.000142529692
 18       0.000565370426
 19      -0.002072145861
 20       0.000011358028
 21      -0.000033688663
 22       0.000008693109
 23      -0.000006698001
 24       0.000118040989
 25      -0.000036872767
 26       0.000700402733
 27       0.000403442038
 28      -0.000191384876
 29       0.000020176067
 30       0.000001412564
 31       0.000008455844
 32      -0.000020257115
 33       0.000018131757
 34      -0.000050678156
 35       0.000008048925
 36      -0.000022875940
 37       0.000045241080
 38      -0.000085803332
 39       0.000000890059
 40       0.000005716225
 41      -0.000004590683
 42       0.000002326745
 43       0.000001269735
 44       0.000008117080
 45      -0.000006668497
 46      -0.000087876154
 47       0.000247628058
 48       0.000765697345
 49      -0.001574823798
 50       0.007859544190
 51       0.000045365194
 52      -0.000006702346
 53      -0.000006037002
 54      -0.000346423953
 55       0.000044033389
 56       0.000040834582
 57       0.000544483728
 58      -0.000053494752
 59      -0.000052926187
 60       0.002761781525
 61      -0.000625886682
 62      -0.000522527715
 63      -0.002100507932
 64       0.000015149116
 65       0.000068380430
 66       0.000536925696
 67       0.000163946917
 68       0.000062400438
 69      -0.000982044921
 70       0.000158813399
 71       0.000953958687
 72       0.000202904770
 73       0.000139587323
 74      -0.001759978488
 75       0.000159128981
 76       0.000367028501
 77      -0.000524493433
 78      -0.000055661072
 79       0.000055250078
 80       0.000081327007
 81      -0.000661918785
 82       0.000190625880
 83       0.008034200718
 84       0.011846686810
 85       0.000440340828
 86       0.000243710674
 87      -0.003265059399
 88       0.000051285496
 89       0.000055522709
 90       0.000038513361
 91      -0.000127425973
 92      -0.000267949032
 93      -0.000188994477
 94       0.001092990832
 95      -0.000920222412
 96      -0.000690304861
 97       0.000021009185
 98       0.000003082037
 99       0.000010153996
100      -0.000043340340
101       0.000001644623
102      -0.000056056665
103       0.000032583763
104      -0.000097046192
105       0.000159535811
106       0.000052299079
107       0.000007387313
108       0.000007205767
109      -0.000010125440
110       0.000022771064
111      -0.000003028933
112       0.000008243738
113      -0.000015247782
114      -0.435007023524
115      -0.639555172764
116      -0.034820852391
117       0.024282033887
118      -0.012317210082
119      -0.001681655490
120       0.000313484020
121       0.000269191995
122       0.003497617134
123      -0.000519157566
124      -0.000465132050
125      -0.002336429431
126       0.000692511432
127       0.000558720800
128       0.000103947316
129       0.000022830962
130       0.000027067127
131      -0.000198743334
132       0.000018410167
133      -0.000453749605
134      -0.000108564080
135      -0.000083305372
136       0.000848041539
137      -0.000092894404
138       0.000014673166
139      -0.000141932312
140       0.000014405522
141      -0.000045026714
142       0.000013892835
143      -0.000178265983
144       0.000038523228
145      -0.000001728598
146       0.000016095849
147      -0.000142444712
148       0.000566193469
149      -0.002072752626
150       0.000010013803
151      -0.000002270666
152      -0.000035160412
153      -0.000002340520
154       0.000002543274
155       0.000123888163
156       0.000717767674
157      -0.000034369841
158       0.000417945587
159       0.000003182630
160       0.000017990395
161       0.000002537450
162      -0.000028980842
163       0.000005753712
164      -0.000000198946
165      -0.000086536534
166      -0.000006886341
167       0.000068768365
168      -0.000016400606
169      -0.000001877391
170       0.000005145239
171       0.000000096482
172       0.000007977679
173       0.000001350127
174       0.000007974088
175      -0.000003131287
 Sym=     1a
 Ene= -6.66577509442981E+00
 Spin= Alpha
 Occup= 2.000000
  1      -0.000000292004
  2       0.000018891654
  3      -0.000111023891
  4      -0.000033006211
  5       0.000337944257
  6      -0.000017819460
  7      -0.000017270805
  8      -0.000011870825
  9      -0.000010455045
 10      -0.000010363359
 11      -0.000006887599
 12      -0.000009782954
 13      -0.000009499661
 14      -0.000006573123
 15       0.000060751063
 16       0.000177222624
 17      -0.000619000922
 18       0.000316609664
 19       0.004606042923
 20       0.000207046289
 21       0.000452797627
 22      -0.000192181396
 23      -0.000744282797
 24      -0.001639705010
 25       0.000706790267
 26      -0.000853673509
 27      -0.001838709432
 28       0.000759841754
 29       0.000068752624
 30       0.000044904009
 31       0.000106247808
 32       0.000105107708
 33      -0.000131936923
 34      -0.000351862074
 35      -0.000228696059
 36      -0.000531419318
 37      -0.000529270819
 38       0.000666616668
 39       0.000011949778
 40       0.000025949626
 41      -0.000004529660
 42      -0.000004662766
 43      -0.000002461728
 44      -0.000021754930
 45       0.000001712875
 46       0.282227155152
 47       0.265326017736
 48      -0.780952310414
 49      -0.033042338359
 50      -0.010867202418
 51      -0.003640241298