
                                 *****************
                                 * O   R   C   A *
                                 *****************

                                            #,                                       
                                            ###                                      
                                            ####                                     
                                            #####                                    
                                            ######                                   
                                           ########,                                 
                                     ,,################,,,,,                         
                               ,,#################################,,                 
                          ,,##########################################,,             
                       ,#########################################, ''#####,          
                    ,#############################################,,   '####,        
                  ,##################################################,,,,####,       
                ,###########''''           ''''###############################       
              ,#####''   ,,,,##########,,,,          '''####'''          '####       
            ,##' ,,,,###########################,,,                        '##       
           ' ,,###''''                  '''############,,,                           
         ,,##''                                '''############,,,,        ,,,,,,###''
      ,#''                                            '''#######################'''  
     '                                                          ''''####''''         
             ,#######,   #######,   ,#######,      ##                                
            ,#'     '#,  ##    ##  ,#'     '#,    #''#        ,####,   ,####,        
            ##       ##  ##   ,#'  ##            #'  '#       #'       #'  '#        
            ##       ##  #######   ##           ,######,      #####,   #    #        
            '#,     ,#'  ##    ##  '#,     ,#' ,#      #,     #,   #   #,  ,#        
             '#######'   ##     ##  '#######'  #'      '#     '####' # '####'        



                #########################################################
                #                        -***-                          #
                #          Department of theory and spectroscopy        #
                #                                                       #
                #                      Frank Neese                      #
                #                                                       #
                #     Directorship, Architecture, Infrastructure        #
                #                    SHARK, DRIVERS                     #
                #        Core code/Algorithms in most modules           #
                #                                                       #
                #        Max Planck Institute fuer Kohlenforschung      #
                #                Kaiser Wilhelm Platz 1                 #
                #                 D-45470 Muelheim/Ruhr                 #
                #                      Germany                          #
                #                                                       #
                #                  All rights reserved                  #
                #                        -***-                          #
                #########################################################


                         Program Version 6.0.1  -  RELEASE   -


 With contributions from (in alphabetic order):
[Max-Planck-Institut fuer Kohlenforschung]                               
  Daniel Aravena         : Magnetic Suceptibility                        
  Michael Atanasov       : Ab Initio Ligand Field Theory (pilot matlab implementation)
  Alexander A. Auer      : GIAO ZORA, VPT2 properties, NMR spectrum      
  Ute Becker             : All parallelization in ORCA, NUMFREQ, NUMCALC 
  Giovanni Bistoni       : ED, misc. LED, open-shell LED, HFLD           
  Martin Brehm           : Molecular dynamics                            
  Dmytro Bykov           : pre 5.0 version of the SCF Hessian            
  Marcos Casanova-Páez   : Triplet and SCS-CIS(D). UHF-(DLPNO)-IP/EA/STEOM-CCSD. UHF-CVS-IP/STEOM-CCSD   
  Vijay G. Chilkuri      : MRCI spin determinant printing, contributions to CSF-ICE 
  Pauline Colinet        : FMM embedding                                 
  Dipayan Datta          : RHF DLPNO-CCSD density                        
  Achintya Kumar Dutta   : EOM-CC, STEOM-CC                              
  Nicolas Foglia         : Exact transition moments, OPA infrastructure, MCD improvements    
  Dmitry Ganyushin       : Spin-Orbit,Spin-Spin,Magnetic field MRCI      
  Miquel Garcia-Rates    : C-PCM and meta-GGA Hessian, CCSD/C-PCM, Gaussian charge scheme 
  Tiago L. C. Gouveia    : GS-ROHF, GS-ROCIS                             
  Yang Guo               : DLPNO-NEVPT2, F12-NEVPT2, CIM, IAO-localization        
  Andreas Hansen         : Spin unrestricted coupled pair/coupled cluster methods 
  Ingolf Harden          : AUTO-CI MPn and infrastructure                
  Benjamin Helmich-Paris : MC-RPA, TRAH-(SCF,CASSCF), AVAS, COSX integrals, SCF dyn. polar. 
  Lee Huntington         : MR-EOM, pCC                                   
  Robert Izsak           : Overlap fitted RIJCOSX, COSX-SCS-MP3, EOM     
  Riya Kayal             : Wick's Theorem for AUTO-CI, AUTO-CI UHF-CCSDT 
  Emily Kempfer          : AUTO-CI, RHF CISDT and CCSDT                  
  Christian Kollmar      : KDIIS, OOCD, Brueckner-CCSD(T), CCSD density, CASPT2, CASPT2-K, improved NEVPT2 
  Axel Koslowski         : Symmetry handling                             
  Simone Kossmann        : meta-GGA functionals, TD-DFT gradient, OOMP2, (MP2 Hessian; deprecated post 5.0) 
  Lucas Lang             : DCDCAS                                        
  Marvin Lechner         : AUTO-CI (C++ implementation), FIC-MRCC        
  Spencer Leger          : CASSCF response                               
  Dagmar Lenk            : GEPOL surface, SMD, ORCA-2-JSON               
  Dimitrios Liakos       : Extrapolation schemes; Compound Job, initial MDCI parallelization 
  Dimitrios Manganas     : Further ROCIS development; embedding schemes. LFT, Crystal Embedding 
  Dimitrios Pantazis     : SARC Basis sets                               
  Anastasios Papadopoulos: AUTO-CI, single reference methods and gradients 
  Taras Petrenko         : pre 6.0 DFT Hessian and TD-DFT gradient, (ASA, deprecated), ECA, 1-Electron XAS/XES, NRVS 
  Peter Pinski           : DLPNO-MP2, DLPNO-MP2 Gradient                 
  Christoph Reimann      : Effective Core Potentials                     
  Marius Retegan         : Local ZFS, SOC                                
  Christoph Riplinger    : Optimizer, TS searches, QM/MM, DLPNO-CCSD(T), (RO)-DLPNO pert. Triples 
  Michael Roemelt        : Original ROCIS implementation                 
  Masaaki Saitow         : Open-shell DLPNO-CCSD energy and density      
  Barbara Sandhoefer     : DKH picture change effects                    
  Kantharuban Sivalingam : CASSCF convergence/infrastructure, NEVPT2 and variants, FIC-MRCI 
  Bernardo de Souza      : ESD, SOC TD-DFT                               
  Georgi L. Stoychev     : AutoAux, RI-MP2 NMR, DLPNO-MP2 response, X2C  
  Van Anh Tran           : RI-MP2 g-tensors                              
  Willem Van den Heuvel  : Paramagnetic NMR                              
  Zikuan Wang            : NOTCH, Electric field optimization            
  Frank Wennmohs         : Technical directorship and infrastructure     
  Hang Xu                : AUTO-CI-Response properties                   
                                                                         
[FACCTs GmbH]                                                            
  Markus Bursch, Miquel Garcia-Rates, Christoph Riplinger, Bernardo de Souza, Georgi L. Stoychev 
                                                                 
  APM, Basis sets (HGBS, AHGBS, def-TZVP (Ac-Lr), def2-XVPD (La-Lu)), CI-OPT, improved COSX, DLPNO-Multilevel,           
  DOCKER, DRACO, updates on ESD, GOAT, IRC, LR-CPCM, MBIS, meta-GGA TD-DFT gradient, ML-optimized integration grids, 
  MM, NACMEs, nearIR, NEB, NEB-TS, NL-DFT gradient (VV10), 2- and 3-layer-ONIOM, interface openCOSMO-RS, QMMM,   
  Crystal-QMMM, SF, symmetry and pop. for TD-DFT, r2SCAN hybrids, SOLVATOR                                   
                                                                         
[Other institutions]                                                     
  V. Asgeirsson          : NEB                                           
  Christoph Bannwarth    : sTDA-DFT, sTD-DFT, PBEh-3c, B97-3c, D3        
  Sebastian Ehlert       : rSCAN, r2SCAN, r2SCAN-3c, D4, dhf basis sets  
  Marvin Friede          : D4 for Fr, Ra, Ac-Lr                          
  Lars Goerigk           : TD-DFT with DH, B97 family of functionals     
  Stefan Grimme          : VdW corrections, initial TS optimization, DFT functionals, gCP, sTDA/sTD-DF 
  Waldemar Hujo          : DFT-NL                                        
  H. Jonsson             : NEB                                           
  Holger Kruse           : gCP                                           
  Marcel Mueller         : wB97X-3c, vDZP basis set                      
  Hagen Neugebauer       : wr2SCAN                                       
  Tobias Risthaus        : range-separated hybrid DFT                    
  Lukas Wittmann         : regularized MP2, r2SCAN double-hybrids, wr2SCAN        
                                                                         
We gratefully acknowledge several colleagues who have allowed us to      
interface, adapt or use parts of their codes:                            
  Ed Valeev, F. Pavosevic, A. Kumar             : LibInt (2-el integral package), F12 methods 
  Garnet Chan, S. Sharma, J. Yang, R. Olivares  : DMRG                   
  Ulf Ekstrom                                   : XCFun DFT Library      
  Mihaly Kallay                                 : mrcc  (arbitrary order and MRCC methods)
  Frank Weinhold                                : gennbo (NPA and NBO analysis)           
  Simon Mueller                                 : openCOSMO-RS                            
  Christopher J. Cramer and Donald G. Truhlar   : smd solvation model                     
  S Lehtola, MJT Oliveira, MAL Marques          : LibXC Library                           
  Liviu Ungur et al                             : ANISO software                          


 Your calculation uses the libint2 library for the computation of 2-el integrals
 For citations please refer to: http://libint.valeyev.net

 Your ORCA version has been built with support for libXC version: 6.2.2
 For citations please refer to: https://libxc.gitlab.io

 This ORCA versions uses:
   CBLAS   interface :  Fast vector & matrix operations
   LAPACKE interface :  Fast linear algebra routines
   SCALAPACK package :  Parallel linear algebra routines
   Shared memory     :  Shared parallel matrices
   BLAS/LAPACK       :  OpenBLAS 0.3.27  USE64BITINT DYNAMIC_ARCH NO_AFFINITY SkylakeX SINGLE_THREADED
        Core in use  :  SkylakeX
   Copyright (c) 2011-2014, The OpenBLAS Project


NOTE: MaxCore=5000 MB was set to SCF,MP2,MDCI,CIPSI,MRCI and CIS
      => If you want to overwrite this, your respective input block should be placed after the MaxCore statement
Your calculation utilizes the atom-pairwise dispersion correction
with the Becke-Johnson damping scheme (D3BJ)


Warning: RI is on but no J-basis has been assigned. Assigning Def2/J (nothing to worry about!)
================================================================================

----- Orbital basis set information -----
Your calculation utilizes the basis: def2-TZVP
   F. Weigend and R. Ahlrichs, Phys. Chem. Chem. Phys. 7, 3297 (2005).

----- AuxJ basis set information -----
Your calculation utilizes the auxiliary basis: def2/J
   F. Weigend, Phys. Chem. Chem. Phys. 8, 1057 (2006).

================================================================================
                                        WARNINGS
                       Please study these warnings very carefully!
================================================================================

WARNING: Old DensityContainer found on disk!
         Will remove this file - 
         If you want to keep old densities, please start your calculation with a different basename. 


WARNING: Geometry Optimization
  ===> : Switching off AutoStart
         For restart on a previous wavefunction, please use MOREAD

================================================================================
                                       INPUT FILE
================================================================================
NAME = FEC.inp
|  1> ! Opt B3LYP def2-TZVP TightSCF TightOpt D3BJ RIJCOSX
|  2> 
|  3> %maxcore 5000
|  4> 
|  5> %pal
|  6> nprocs 32
|  7> end
|  8> 
|  9> * xyz 0 1
| 10> F         -1.73320        0.68190       -0.74970
| 11> O          0.06590        0.89910        0.56450
| 12> O          0.48020       -1.13660       -0.30030
| 13> O          2.16930        0.41450       -0.21450
| 14> C         -1.18080        0.24700        0.41100
| 15> C         -0.81200       -1.19520        0.29280
| 16> C          1.01050        0.08940       -0.00390
| 17> H         -1.86370        0.46440        1.23610
| 18> H         -0.71650       -1.68710        1.26590
| 19> H         -1.49640       -1.75840       -0.34660
| 20> *
| 21> 
| 22>                          ****END OF INPUT****
================================================================================

                       *****************************
                       * Geometry Optimization Run *
                       *****************************

Geometry optimization settings:
Update method            Update   .... BFGS
Choice of coordinates    CoordSys .... (2022) Redundant Internals
Initial Hessian          InHess   .... Almloef's Model
Max. no of cycles        MaxIter  .... 50

Convergence Tolerances:
Energy Change            TolE     ....  1.0000e-06 Eh
Max. Gradient            TolMAXG  ....  1.0000e-04 Eh/bohr
RMS Gradient             TolRMSG  ....  3.0000e-05 Eh/bohr
Max. Displacement        TolMAXD  ....  1.0000e-03 bohr
RMS Displacement         TolRMSD  ....  6.0000e-04 bohr
Strict Convergence                .... False

------------------------------------------------------------------------------
                        ORCA OPTIMIZATION COORDINATE SETUP
------------------------------------------------------------------------------

The optimization will be done in redundant internal coordinates (2022)
Making redundant internal coordinates   ...  (2022 redundants) done
Evaluating the initial hessian          ...  (Almloef) done
Evaluating the coordinates              ...  done
Calculating the B-matrix                .... done
Calculating the G-matrix                .... done
Diagonalizing the G-matrix              .... done
The first mode is                       ....   19
The number of degrees of freedom        ....   24

    -----------------------------------------------------------------
                    Redundant Internal Coordinates


    -----------------------------------------------------------------
         Definition                    Initial Value    Approx d2E/dq
    -----------------------------------------------------------------
      1. B(C   4,O   1)                  1.4153         0.509941   
      2. B(C   4,F   0)                  1.3570         0.586923   
      3. B(C   5,O   2)                  1.4230         0.495674   
      4. B(C   5,C   4)                  1.4933         0.427504   
      5. B(C   6,O   2)                  1.3683         0.606113   
      6. B(C   6,O   3)                  1.2218         1.037972   
      7. B(C   6,O   1)                  1.3678         0.607078   
      8. B(H   7,C   4)                  1.0929         0.356299   
      9. B(H   8,C   5)                  1.0945         0.354149   
     10. B(H   9,C   5)                  1.0929         0.356284   
     11. A(C   4,O   1,C   6)          106.8880         0.412181   
     12. A(C   5,O   2,C   6)          107.3707         0.409996   
     13. A(F   0,C   4,O   1)          107.6789         0.407929   
     14. A(F   0,C   4,H   7)          109.1255         0.345449   
     15. A(O   1,C   4,C   5)          103.6518         0.389997   
     16. A(O   1,C   4,H   7)          112.1409         0.338812   
     17. A(C   5,C   4,H   7)          113.9662         0.331030   
     18. A(F   0,C   4,C   5)          110.0199         0.397994   
     19. A(C   4,C   5,H   8)          112.6570         0.330698   
     20. A(O   2,C   5,H   8)          108.0487         0.336873   
     21. A(C   4,C   5,H   9)          112.9137         0.331027   
     22. A(O   2,C   5,C   4)          102.5614         0.388070   
     23. A(H   8,C   5,H   9)          110.0709         0.289595   
     24. A(O   2,C   5,H   9)          110.2449         0.337210   
     25. A(O   1,C   6,O   2)          110.6574         0.425069   
     26. A(O   2,C   6,O   3)          124.6563         0.468447   
     27. A(O   1,C   6,O   3)          124.6860         0.468584   
     28. D(F   0,C   4,O   1,C   6)    -91.7081         0.020586   
     29. D(C   5,C   4,O   1,C   6)     24.8547         0.020586   
     30. D(H   7,C   4,O   1,C   6)    148.2293         0.020586   
     31. D(H   8,C   5,C   4,H   7)    -35.8208         0.014450   
     32. D(H   9,C   5,O   2,C   6)    144.3782         0.019414   
     33. D(O   2,C   5,C   4,F   0)     85.3404         0.014450   
     34. D(H   8,C   5,O   2,C   6)    -95.2975         0.019414   
     35. D(O   2,C   5,C   4,H   7)   -151.7320         0.014450   
     36. D(H   8,C   5,C   4,F   0)   -158.7483         0.014450   
     37. D(H   8,C   5,C   4,O   1)     86.3472         0.014450   
     38. D(O   2,C   5,C   4,O   1)    -29.5641         0.014450   
     39. D(C   4,C   5,O   2,C   6)     23.8916         0.019414   
     40. D(O   1,C   6,O   2,C   5)     -9.3215         0.026868   
     41. D(O   3,C   6,O   1,C   4)    169.6507         0.026959   
     42. D(O   2,C   6,O   1,C   4)    -10.5472         0.026959   
     43. D(O   3,C   6,O   2,C   5)    170.4806         0.026868   
    -----------------------------------------------------------------

Number of atoms                         .... 10
Number of degrees of freedom            .... 43


         *************************************************************
         *                GEOMETRY OPTIMIZATION CYCLE   1            *
         *************************************************************
---------------------------------
CARTESIAN COORDINATES (ANGSTROEM)
---------------------------------
  F     -1.733200    0.681900   -0.749700
  O      0.065900    0.899100    0.564500
  O      0.480200   -1.136600   -0.300300
  O      2.169300    0.414500   -0.214500
  C     -1.180800    0.247000    0.411000
  C     -0.812000   -1.195200    0.292800
  C      1.010500    0.089400   -0.003900
  H     -1.863700    0.464400    1.236100
  H     -0.716500   -1.687100    1.265900
  H     -1.496400   -1.758400   -0.346600

----------------------------
CARTESIAN COORDINATES (A.U.)
----------------------------
  NO LB      ZA    FRAG     MASS         X           Y           Z
   0 F     9.0000    0    18.998   -3.275273    1.288604   -1.416728
   1 O     8.0000    0    15.999    0.124533    1.699053    1.066750
   2 O     8.0000    0    15.999    0.907446   -2.147863   -0.567485
   3 O     8.0000    0    15.999    4.099383    0.783291   -0.405346
   4 C     6.0000    0    12.011   -2.231389    0.466762    0.776677
   5 C     6.0000    0    12.011   -1.534458   -2.258601    0.553312
   6 C     6.0000    0    12.011    1.909568    0.168942   -0.007370
   7 H     1.0000    0     1.008   -3.521883    0.877589    2.335890
   8 H     1.0000    0     1.008   -1.353989   -3.188157    2.392204
   9 H     1.0000    0     1.008   -2.827786   -3.322894   -0.654979

--------------------------------
INTERNAL COORDINATES (ANGSTROEM)
--------------------------------
 F      0   0   0     0.000000000000     0.00000000     0.00000000
 O      1   0   0     2.238539320629     0.00000000     0.00000000
 O      2   1   0     2.250243991215    80.47786342     0.00000000
 O      2   1   3     2.294770079986   121.12361754    47.00113868
 C      1   2   3     1.357021834754    37.04065833    73.55272648
 C      3   2   1     1.423018766566    73.13533398   304.68667103
 C      4   2   1     1.221826423843    29.34937335   304.27914466
 H      5   1   2     1.092888457254   109.12551984   121.95194377
 H      6   3   2     1.094536189443   108.04865756   259.17820879
 H      6   3   2     1.092899794126   110.24489356   138.85393584

---------------------------
INTERNAL COORDINATES (A.U.)
---------------------------
 F      0   0   0     0.000000000000     0.00000000     0.00000000
 O      1   0   0     4.230226256002     0.00000000     0.00000000
 O      2   1   0     4.252344877899    80.47786342     0.00000000
 O      2   1   3     4.336486991491   121.12361754    47.00113868
 C      1   2   3     2.564399625437    37.04065833    73.55272648
 C      3   2   1     2.689115752241    73.13533398   304.68667103
 C      4   2   1     2.308917324251    29.34937335   304.27914466
 H      5   1   2     2.065259879135   109.12551984   121.95194377
 H      6   3   2     2.068373641713   108.04865756   259.17820879
 H      6   3   2     2.065281302716   110.24489356   138.85393584

---------------------
BASIS SET INFORMATION
---------------------
There are 4 groups of distinct atoms

 Group   1 Type F   : 11s6p2d1f contracted to 5s3p2d1f pattern {62111/411/11/1}
 Group   2 Type O   : 11s6p2d1f contracted to 5s3p2d1f pattern {62111/411/11/1}
 Group   3 Type C   : 11s6p2d1f contracted to 5s3p2d1f pattern {62111/411/11/1}
 Group   4 Type H   : 5s1p contracted to 3s1p pattern {311/1}

Atom   0F    basis set group =>   1
Atom   1O    basis set group =>   2
Atom   2O    basis set group =>   2
Atom   3O    basis set group =>   2
Atom   4C    basis set group =>   3
Atom   5C    basis set group =>   3
Atom   6C    basis set group =>   3
Atom   7H    basis set group =>   4
Atom   8H    basis set group =>   4
Atom   9H    basis set group =>   4
---------------------------------
AUXILIARY/J BASIS SET INFORMATION
---------------------------------
There are 4 groups of distinct atoms

 Group   1 Type F   : 12s5p4d2f1g contracted to 6s4p3d1f1g pattern {711111/2111/211/2/1}
 Group   2 Type O   : 12s5p4d2f1g contracted to 6s4p3d1f1g pattern {711111/2111/211/2/1}
 Group   3 Type C   : 12s5p4d2f1g contracted to 6s4p3d1f1g pattern {711111/2111/211/2/1}
 Group   4 Type H   : 5s2p1d contracted to 3s1p1d pattern {311/2/1}

Atom   0F    basis set group =>   1
Atom   1O    basis set group =>   2
Atom   2O    basis set group =>   2
Atom   3O    basis set group =>   2
Atom   4C    basis set group =>   3
Atom   5C    basis set group =>   3
Atom   6C    basis set group =>   3
Atom   7H    basis set group =>   4
Atom   8H    basis set group =>   4
Atom   9H    basis set group =>   4
--------------------------------------------------------------------------
By default, for Open MPI 4.0 and later, infiniband ports on a device
are not used by default.  The intent is to use UCX for these devices.
You can override this policy by setting the btl_openib_allow_ib MCA parameter
to true.

  Local host:              psid09
  Local adapter:           mlx4_0
  Local port:              1

--------------------------------------------------------------------------
--------------------------------------------------------------------------
WARNING: There was an error initializing an OpenFabrics device.

  Local host:   psid09
  Local device: mlx4_0
--------------------------------------------------------------------------


           ************************************************************
           *        Program running with 32 parallel MPI-processes    *
           *              working on a common directory               *
           ************************************************************
------------------------------------------------------------------------------
                             ORCA STARTUP CALCULATIONS
                           -- RI-GTO INTEGRALS CHOSEN --
------------------------------------------------------------------------------
------------------------------------------------------------------------------
                   ___                                                        
                  /   \      - P O W E R E D   B Y -                         
                 /     \                                                     
                 |  |  |   _    _      __       _____    __    __             
                 |  |  |  | |  | |    /  \     |  _  \  |  |  /  |          
                  \  \/   | |  | |   /    \    | | | |  |  | /  /          
                 / \  \   | |__| |  /  /\  \   | |_| |  |  |/  /          
                |  |  |   |  __  | /  /__\  \  |    /   |      \           
                |  |  |   | |  | | |   __   |  |    \   |  |\   \          
                \     /   | |  | | |  |  |  |  | |\  \  |  | \   \       
                 \___/    |_|  |_| |__|  |__|  |_| \__\ |__|  \__/        
                                                                              
                      - O R C A' S   B I G   F R I E N D -                    
                                      &                                       
                       - I N T E G R A L  F E E D E R -                       
                                                                              
 v1 FN, 2020, v2 2021, v3 2022-2024                                           
------------------------------------------------------------------------------


----------------------
SHARK INTEGRAL PACKAGE
----------------------

Number of atoms                             ...     10
Number of basis functions                   ...    235
Number of shells                            ...     89
Maximum angular momentum                    ...      3
Integral batch strategy                     ... SHARK/LIBINT Hybrid
RI-J (if used) integral strategy            ... SPLIT-RIJ (Revised 2003 algorithm where possible)
Printlevel                                  ...      1
Contraction scheme used                     ... SEGMENTED contraction
Prescreening option                         ... SCHWARTZ
   Thresh                                   ... 2.500e-11
   Tcut                                     ... 2.500e-12
   Tpresel                                  ... 2.500e-12 
Coulomb Range Separation                    ... NOT USED
Exchange Range Separation                   ... NOT USED
Multipole approximations                    ... NOT USED
Finite Nucleus Model                        ... NOT USED
CABS basis                                  ... NOT available
Auxiliary Coulomb fitting basis             ... AVAILABLE
   # of basis functions in Aux-J            ...    376
   # of shells in Aux-J                     ...    120
   Maximum angular momentum in Aux-J        ...      4
Auxiliary J/K fitting basis                 ... NOT available
Auxiliary Correlation fitting basis         ... NOT available
Auxiliary 'external' fitting basis          ... NOT available

Checking pre-screening integrals            ... done (  0.0 sec) Dimension = 89
Check shell pair data                       ... done (  0.0 sec)
Shell pair information
Shell pair cut-off parameter TPreSel        ...   2.5e-12
Total number of shell pairs                 ...      4005
Shell pairs after pre-screening             ...      3774
Total number of primitive shell pairs       ...     12724
Primitive shell pairs kept                  ...      9175
          la=0 lb=0:    884 shell pairs
          la=1 lb=0:   1016 shell pairs
          la=1 lb=1:    297 shell pairs
          la=2 lb=0:    572 shell pairs
          la=2 lb=1:    330 shell pairs
          la=2 lb=2:    102 shell pairs
          la=3 lb=0:    286 shell pairs
          la=3 lb=1:    164 shell pairs
          la=3 lb=2:     96 shell pairs
          la=3 lb=3:     27 shell pairs

Calculating one electron integrals          ... done (  0.0 sec)
Calculating RI/J V-Matrix + Cholesky decomp.... done (  0.1 sec)
Calculating Nuclear repulsion               ... done (  0.0 sec) ENN=    324.172599122515 Eh

Diagonalization of the overlap matrix:
Smallest eigenvalue                        ... 3.918e-04
Time for diagonalization                   ...    0.005 sec
Threshold for overlap eigenvalues          ... 1.000e-07
Number of eigenvalues below threshold      ... 0
Time for construction of square roots      ...    0.004 sec
Total time needed                          ...    0.017 sec

-------------------
DFT GRID GENERATION
-------------------

General Integration Accuracy     IntAcc      ... 4.388
Radial Grid Type                 RadialGrid  ... OptM3 with GC (2021)
Angular Grid (max. ang.)         AngularGrid ... 4 (Lebedev-302)
Angular grid pruning method      GridPruning ... 4 (adaptive)
Weight generation scheme         WeightScheme... mBecke (2022)
Basis function cutoff            BFCut       ... 1.0000e-11
Integration weight cutoff        WCut        ... 1.0000e-14
Partially contracted basis set               ... off
Rotationally invariant grid construction     ... off
Angular grids for H and He will be reduced by one unit

Total number of grid points                  ...    52194
Total number of batches                      ...      818
Average number of points per batch           ...       63
Average number of grid points per atom       ...     5219

--------------------
COSX GRID GENERATION
--------------------

GRIDX 1
-------
General Integration Accuracy     IntAcc      ... 3.816
Radial Grid Type                 RadialGrid  ... OptM3 with GC (2021)
Angular Grid (max. ang.)         AngularGrid ... 1 (Lebedev-50)
Angular grid pruning method      GridPruning ... 4 (adaptive)
Weight generation scheme         WeightScheme... mBecke (2022)
Basis function cutoff            BFCut       ... 1.0000e-11
Integration weight cutoff        WCut        ... 1.0000e-14
Partially contracted basis set               ... on
Rotationally invariant grid construction     ... off
Angular grids for H and He will be reduced by one unit

Total number of grid points                  ...     6627
Total number of batches                      ...       59
Average number of points per batch           ...      112
Average number of grid points per atom       ...      663
UseSFitting                                  ... on

GRIDX 2
-------
General Integration Accuracy     IntAcc      ... 4.020
Radial Grid Type                 RadialGrid  ... OptM3 with GC (2021)
Angular Grid (max. ang.)         AngularGrid ... 2 (Lebedev-110)
Angular grid pruning method      GridPruning ... 4 (adaptive)
Weight generation scheme         WeightScheme... mBecke (2022)
Basis function cutoff            BFCut       ... 1.0000e-11
Integration weight cutoff        WCut        ... 1.0000e-14
Partially contracted basis set               ... on
Rotationally invariant grid construction     ... off
Angular grids for H and He will be reduced by one unit

Total number of grid points                  ...    15131
Total number of batches                      ...      123
Average number of points per batch           ...      123
Average number of grid points per atom       ...     1513
UseSFitting                                  ... on

GRIDX 3
-------
General Integration Accuracy     IntAcc      ... 4.338
Radial Grid Type                 RadialGrid  ... OptM3 with GC (2021)
Angular Grid (max. ang.)         AngularGrid ... 3 (Lebedev-194)
Angular grid pruning method      GridPruning ... 4 (adaptive)
Weight generation scheme         WeightScheme... mBecke (2022)
Basis function cutoff            BFCut       ... 1.0000e-11
Integration weight cutoff        WCut        ... 1.0000e-14
Partially contracted basis set               ... on
Rotationally invariant grid construction     ... off
Angular grids for H and He will be reduced by one unit

Total number of grid points                  ...    33484
Total number of batches                      ...      265
Average number of points per batch           ...      126
Average number of grid points per atom       ...     3348
UseSFitting                                  ... on
Initializing property integral containers    ... done (  0.0 sec)

SHARK setup successfully completed in   1.0 seconds

Maximum memory used throughout the entire STARTUP-calculation: 17.6 MB
[psid09:151315] 31 more processes have sent help message help-mpi-btl-openib.txt / ib port not selected
[psid09:151315] Set MCA parameter "orte_base_help_aggregate" to 0 to see all help / error messages
[psid09:151315] 31 more processes have sent help message help-mpi-btl-openib.txt / error in device init
--------------------------------------------------------------------------
By default, for Open MPI 4.0 and later, infiniband ports on a device
are not used by default.  The intent is to use UCX for these devices.
You can override this policy by setting the btl_openib_allow_ib MCA parameter
to true.

  Local host:              psid09
  Local adapter:           mlx4_0
  Local port:              1

--------------------------------------------------------------------------
--------------------------------------------------------------------------
WARNING: There was an error initializing an OpenFabrics device.

  Local host:   psid09
  Local device: mlx4_0
--------------------------------------------------------------------------


           ************************************************************
           *        Program running with 32 parallel MPI-processes    *
           *              working on a common directory               *
           ************************************************************
-------------------------------------------------------------------------------
                                 ORCA GUESS
                   Start orbitals & Density for SCF / CASSCF
-------------------------------------------------------------------------------

------------
SCF SETTINGS
------------
Hamiltonian:
 Density Functional     Method          .... DFT(GTOs)
 Exchange Functional    Exchange        .... B88
   X-Alpha parameter    XAlpha          ....  0.666667
   Becke's b parameter  XBeta           ....  0.004200
 Correlation Functional Correlation     .... LYP
 LDA part of GGA corr.  LDAOpt          .... VWN-5
 Gradients option       PostSCFGGA      .... off
 Hybrid DFT is turned on
   Fraction HF Exchange ScalHFX         ....  0.200000
   Scaling of DF-GGA-X  ScalDFX         ....  0.720000
   Scaling of DF-GGA-C  ScalDFC         ....  0.810000
   Scaling of DF-LDA-C  ScalLDAC        ....  1.000000
   Perturbative correction              ....  0.000000
   NL short-range parameter             ....  4.800000
 RI-approximation to the Coulomb term is turned on
   Number of AuxJ basis functions       .... 376
   RIJ-COSX (HFX calculated with COS-X)).... on


General Settings:
 Integral files         IntName         .... FEC
 Hartree-Fock type      HFTyp           .... RHF
 Total Charge           Charge          ....    0
 Multiplicity           Mult            ....    1
 Number of Electrons    NEL             ....   54
 Basis Dimension        Dim             ....  235
 Nuclear Repulsion      ENuc            ....    324.1725991225 Eh

Convergence Acceleration:
 AO-DIIS                CNVDIIS         .... on
   Start iteration      DIISMaxIt       ....    12
   Startup error        DIISStart       ....  0.200000
   # of expansion vecs  DIISMaxEq       ....     5
   Bias factor          DIISBfac        ....   1.050
   Max. coefficient     DIISMaxC        ....  10.000
 MO-DIIS                CNVKDIIS        .... off
 Trust-Rad. Augm. Hess. CNVTRAH         .... auto
   Auto Start mean grad. ratio tolernc. ....  1.125000
   Auto Start start iteration           ....    50
   Auto Start num. interpolation iter.  ....    10
   Max. Number of Micro iterations      ....    24
   Max. Number of Macro iterations      .... Maxiter - #DIIS iter
   Number of Davidson start vectors     ....     2
   Converg. threshold    (grad. norm)   ....   1.000e-05
   Grad. Scal. Fac. for Micro threshold ....   0.100
   Minimum threshold for Micro iter.    ....   1.000e-02
   NR start threshold (gradient norm)   ....   1.000e-04
   Initial trust radius                 ....   0.400
   Minimum AH scaling param. (alpha)    ....   1.000
   Maximum AH scaling param. (alpha)    .... 1000.000
   Quad. conv. algorithm                .... NR
   White noise on init. David. guess    .... on
   Maximum white noise                  ....   0.010
   Pseudo random numbers                .... off
   Inactive MOs                         .... canonical
   Orbital update algorithm             .... Taylor
   Preconditioner                       .... Diag
   Full preconditioner red. dimension   ....   250
 SOSCF                  CNVSOSCF        .... on
   Start iteration      SOSCFMaxIt      ....   150
   Startup grad/error   SOSCFStart      ....  0.003300
   Hessian update       SOSCFHessUp     .... L-BFGS
 Level Shifting         CNVShift        .... on
   Level shift para.    LevelShift      ....    0.2500
   Turn off err/grad.   ShiftErr        ....    0.0010
 Zerner damping         CNVZerner       .... off
 Static damping         CNVDamp         .... on
   Fraction old density DampFac         ....    0.7000
   Max. Damping (<1)    DampMax         ....    0.9800
   Min. Damping (>=0)   DampMin         ....    0.0000
   Turn off err/grad.   DampErr         ....    0.1000

SCF Procedure:
 Maximum # iterations   MaxIter         ....   125
 SCF integral mode      SCFMode         .... Direct
   Integral package                     .... SHARK and LIBINT hybrid scheme
 Reset frequency        DirectResetFreq ....    20
 Integral Threshold     Thresh          ....  2.500e-11 Eh
 Primitive CutOff       TCut            ....  2.500e-12 Eh

Convergence Tolerance:
 Convergence Check Mode ConvCheckMode   .... Total+1el-Energy
 Convergence forced     ConvForced      .... 0
 Energy Change          TolE            ....  1.000e-08 Eh
 1-El. energy change                    ....  1.000e-05 Eh
 Orbital Gradient       TolG            ....  1.000e-05
 Orbital Rotation angle TolX            ....  1.000e-05
 DIIS Error             TolErr          ....  5.000e-07

------------------------------
INITIAL GUESS: MODEL POTENTIAL
------------------------------
Loading Hartree-Fock densities                     ... done
Calculating cut-offs                               ... done
Initializing the effective Hamiltonian             ... done
Setting up the integral package (SHARK)            ... done
Starting the Coulomb interaction                   ... done (   0.1 sec)
Making the grid                                    ... done (   0.1 sec)
Mapping shells                                     ... done
Starting the XC term evaluation                    ... done (   0.0 sec)
  promolecular density results
     # of electrons  =     53.998991021
     EX              =    -50.988293538
     EC              =     -1.942355011
     EX+EC           =    -52.930648549
Transforming the Hamiltonian                       ... done (   0.0 sec)
Diagonalizing the Hamiltonian                      ... done (   0.0 sec)
Back transforming the eigenvectors                 ... done (   0.0 sec)
Now organizing SCF variables                       ... done
                      ------------------
                      INITIAL GUESS DONE (   0.2 sec)
                      ------------------
             **** ENERGY FILE WAS UPDATED (FEC.en.tmp) ****
Finished Guess after   1.2 sec
Maximum memory used throughout the entire GUESS-calculation: 12.4 MB
[psid09:151435] 31 more processes have sent help message help-mpi-btl-openib.txt / ib port not selected
[psid09:151435] Set MCA parameter "orte_base_help_aggregate" to 0 to see all help / error messages
[psid09:151435] 31 more processes have sent help message help-mpi-btl-openib.txt / error in device init
--------------------------------------------------------------------------
By default, for Open MPI 4.0 and later, infiniband ports on a device
are not used by default.  The intent is to use UCX for these devices.
You can override this policy by setting the btl_openib_allow_ib MCA parameter
to true.

  Local host:              psid09
  Local adapter:           mlx4_0
  Local port:              1

--------------------------------------------------------------------------
--------------------------------------------------------------------------
WARNING: There was an error initializing an OpenFabrics device.

  Local host:   psid09
  Local device: mlx4_0
--------------------------------------------------------------------------


           ************************************************************
           *        Program running with 32 parallel MPI-processes    *
           *              working on a common directory               *
           ************************************************************

-------------------------------------------------------------------------------------------
                                      ORCA LEAN-SCF
                              memory conserving SCF solver
-------------------------------------------------------------------------------------------

----------------------------------------D-I-I-S--------------------------------------------
Iteration    Energy (Eh)           Delta-E    RMSDP     MaxDP     DIISErr   Damp  Time(sec)
-------------------------------------------------------------------------------------------
               ***  Starting incremental Fock matrix formation  ***
    1    -441.4110439725395736     0.00e+00  1.67e-03  6.58e-02  3.15e-01  0.700   0.7
    2    -441.5186269366273564    -1.08e-01  9.88e-04  3.45e-02  1.06e-01  0.700   0.5
                               ***Turning on AO-DIIS***
    3    -441.5503468597885330    -3.17e-02  3.60e-04  7.84e-03  2.83e-02  0.700   0.5
    4    -441.5732527939226202    -2.29e-02  5.41e-04  1.42e-02  1.42e-02  0.000   0.5
    5    -441.6267423069790539    -5.35e-02  1.73e-04  3.81e-03  5.21e-03  0.000   0.5
                              *** Initializing SOSCF ***
---------------------------------------S-O-S-C-F--------------------------------------
Iteration    Energy (Eh)           Delta-E    RMSDP     MaxDP     MaxGrad    Time(sec)
--------------------------------------------------------------------------------------
    6    -441.6268958464214620    -1.54e-04  5.52e-05  1.06e-03  2.71e-03     0.5
               *** Restarting incremental Fock matrix formation ***
    7    -441.6269014368942862    -5.59e-06  3.63e-05  8.66e-04  3.75e-04     0.5
    8    -441.6268955746535312     5.86e-06  1.80e-05  5.47e-04  8.39e-04     0.4
    9    -441.6269051768884992    -9.60e-06  7.25e-06  2.77e-04  1.23e-04     0.5
[psid09:151541] 31 more processes have sent help message help-mpi-btl-openib.txt / ib port not selected
[psid09:151541] Set MCA parameter "orte_base_help_aggregate" to 0 to see all help / error messages
[psid09:151541] 31 more processes have sent help message help-mpi-btl-openib.txt / error in device init
   10    -441.6269046867063253     4.90e-07  4.69e-06  1.76e-04  1.81e-04     0.4
   11    -441.6269053616662177    -6.75e-07  3.57e-07  9.54e-06  2.70e-06     0.4
   12    -441.6269053656806136    -4.01e-09  1.75e-07  5.41e-06  3.07e-06     0.5
                 **** Energy Check signals convergence ****

               *****************************************************
               *                     SUCCESS                       *
               *           SCF CONVERGED AFTER  12 CYCLES          *
               *****************************************************

Recomputing exchange energy using gridx3       ... done (    0.353 sec)
Old exchange energy                            :    -10.273079397 Eh
New exchange energy                            :    -10.273086768 Eh
Exchange energy change after final integration :     -0.000007371 Eh
Total energy after final integration           :   -441.626912737 Eh
             **** ENERGY FILE WAS UPDATED (FEC.en.tmp) ****

----------------
TOTAL SCF ENERGY
----------------

Total Energy       :       -441.62691273658851 Eh          -12017.27924 eV

Components:
Nuclear Repulsion  :        324.17259912251484 Eh            8821.18488 eV
Electronic Energy  :       -765.79950448819545 Eh          -20838.46392 eV
One Electron Energy:      -1249.00022223309043 Eh          -33987.02391 eV
Two Electron Energy:        483.20071774489503 Eh           13148.55999 eV

Virial components:
Potential Energy   :       -881.51645117207568 Eh          -23987.28213 eV
Kinetic Energy     :        439.88953843548717 Eh           11970.00288 eV
Virial Ratio       :          2.00394956949256

DFT components:
N(Alpha)           :       26.999988236230 electrons
N(Beta)            :       26.999988236230 electrons
N(Total)           :       53.999976472461 electrons
E(X)               :      -40.933239120324 Eh       
E(C)               :       -2.279555428015 Eh       
E(XC)              :      -43.212794548339 Eh       

---------------
SCF CONVERGENCE
---------------

  Last Energy change         ...    4.0144e-09  Tolerance :   1.0000e-08
  Last MAX-Density change    ...    5.4082e-06  Tolerance :   1.0000e-07
  Last RMS-Density change    ...    1.7517e-07  Tolerance :   5.0000e-09
  Last DIIS Error            ...    2.7141e-03  Tolerance :   5.0000e-07
  Last Orbital Gradient      ...    3.0659e-06  Tolerance :   1.0000e-05
  Last Orbital Rotation      ...    2.2768e-06  Tolerance :   1.0000e-05


----------------
ORBITAL ENERGIES
----------------

  NO   OCC          E(Eh)            E(eV) 
   0   2.0000     -24.711056      -672.4220 
   1   2.0000     -19.215334      -522.8758 
   2   2.0000     -19.207236      -522.6555 
   3   2.0000     -19.130513      -520.5677 
   4   2.0000     -10.368598      -282.1439 
   5   2.0000     -10.346255      -281.5359 
   6   2.0000     -10.271528      -279.5025 
   7   2.0000      -1.260549       -34.3013 
   8   2.0000      -1.176848       -32.0237 
   9   2.0000      -1.075926       -29.2774 
  10   2.0000      -1.044096       -28.4113 
  11   2.0000      -0.806725       -21.9521 
  12   2.0000      -0.702703       -19.1215 
  13   2.0000      -0.647335       -17.6149 
  14   2.0000      -0.592903       -16.1337 
  15   2.0000      -0.578905       -15.7528 
  16   2.0000      -0.534391       -14.5415 
  17   2.0000      -0.518333       -14.1046 
  18   2.0000      -0.487105       -13.2548 
  19   2.0000      -0.461075       -12.5465 
  20   2.0000      -0.444557       -12.0970 
  21   2.0000      -0.428471       -11.6593 
  22   2.0000      -0.410941       -11.1823 
  23   2.0000      -0.385787       -10.4978 
  24   2.0000      -0.364579        -9.9207 
  25   2.0000      -0.327833        -8.9208 
  26   2.0000      -0.311697        -8.4817 
  27   0.0000      -0.001297        -0.0353 
  28   0.0000       0.023622         0.6428 
  29   0.0000       0.032570         0.8863 
  30   0.0000       0.058482         1.5914 
  31   0.0000       0.075398         2.0517 
  32   0.0000       0.087190         2.3726 
  33   0.0000       0.106522         2.8986 
  34   0.0000       0.129745         3.5305 
  35   0.0000       0.151037         4.1099 
  36   0.0000       0.178932         4.8690 
  37   0.0000       0.209399         5.6980 
*Only the first 10 virtual orbitals were printed.

                    ********************************
                    * MULLIKEN POPULATION ANALYSIS *
                    ********************************

-----------------------
MULLIKEN ATOMIC CHARGES
-----------------------
   0 F :   -0.201688
   1 O :   -0.226769
   2 O :   -0.238195
   3 O :   -0.291776
   4 C :    0.246966
   5 C :   -0.013325
   6 C :    0.382075
   7 H :    0.098933
   8 H :    0.110918
   9 H :    0.132861
Sum of atomic charges:    0.0000000

--------------------------------
MULLIKEN REDUCED ORBITAL CHARGES
--------------------------------
  0 F s       :     3.914008  s :     3.914008
      pz      :     1.572943  p :     5.271458
      px      :     1.834993
      py      :     1.863522
      dz2     :     0.005055  d :     0.015556
      dxz     :     0.004551
      dyz     :     0.003615
      dx2y2   :     0.001116
      dxy     :     0.001219
      f0      :     0.000139  f :     0.000666
      f+1     :     0.000185
      f-1     :     0.000130
      f+2     :     0.000079
      f-2     :     0.000106
      f+3     :     0.000015
      f-3     :     0.000013

  1 O s       :     3.777731  s :     3.777731
      pz      :     1.651841  p :     4.406567
      px      :     1.197065
      py      :     1.557661
      dz2     :     0.005295  d :     0.040450
      dxz     :     0.006502
      dyz     :     0.006512
      dx2y2   :     0.007469
      dxy     :     0.014673
      f0      :     0.000249  f :     0.002021
      f+1     :     0.000325
      f-1     :     0.000193
      f+2     :     0.000184
      f-2     :     0.000322
      f+3     :     0.000372
      f-3     :     0.000376

  2 O s       :     3.785657  s :     3.785657
      pz      :     1.646482  p :     4.409209
      px      :     1.334517
      py      :     1.428210
      dz2     :     0.005237  d :     0.041310
      dxz     :     0.007877
      dyz     :     0.006927
      dx2y2   :     0.012834
      dxy     :     0.008435
      f0      :     0.000259  f :     0.002019
      f+1     :     0.000247
      f-1     :     0.000209
      f+2     :     0.000325
      f-2     :     0.000215
      f+3     :     0.000373
      f-3     :     0.000391

  3 O s       :     3.813485  s :     3.813485
      pz      :     1.454550  p :     4.446543
      px      :     1.312236
      py      :     1.679757
      dz2     :     0.003203  d :     0.029925
      dxz     :     0.009500
      dyz     :     0.001173
      dx2y2   :     0.008327
      dxy     :     0.007722
      f0      :     0.000172  f :     0.001822
      f+1     :     0.000239
      f-1     :     0.000037
      f+2     :     0.000305
      f-2     :     0.000153
      f+3     :     0.000472
      f-3     :     0.000443

  4 C s       :     3.173518  s :     3.173518
      pz      :     0.751309  p :     2.347841
      px      :     0.741715
      py      :     0.854816
      dz2     :     0.036595  d :     0.209818
      dxz     :     0.059429
      dyz     :     0.040827
      dx2y2   :     0.035524
      dxy     :     0.037443
      f0      :     0.004477  f :     0.021857
      f+1     :     0.003005
      f-1     :     0.002714
      f+2     :     0.003287
      f-2     :     0.002795
      f+3     :     0.003129
      f-3     :     0.002451

  5 C s       :     3.226311  s :     3.226311
      pz      :     0.980249  p :     2.672059
      px      :     0.743789
      py      :     0.948021
      dz2     :     0.017990  d :     0.104626
      dxz     :     0.025200
      dyz     :     0.013405
      dx2y2   :     0.021411
      dxy     :     0.026619
      f0      :     0.000855  f :     0.010329
      f+1     :     0.001955
      f-1     :     0.000820
      f+2     :     0.001574
      f-2     :     0.001219
      f+3     :     0.001867
      f-3     :     0.002039

  6 C s       :     3.021601  s :     3.021601
      pz      :     0.788148  p :     2.278770
      px      :     0.750082
      py      :     0.740541
      dz2     :     0.027699  d :     0.287063
      dxz     :     0.069090
      dyz     :     0.035215
      dx2y2   :     0.067746
      dxy     :     0.087313
      f0      :     0.002412  f :     0.030492
      f+1     :     0.003361
      f-1     :     0.002363
      f+2     :     0.004061
      f-2     :     0.003508
      f+3     :     0.007079
      f-3     :     0.007707

  7 H s       :     0.880663  s :     0.880663
      pz      :     0.009294  p :     0.020404
      px      :     0.007325
      py      :     0.003786

  8 H s       :     0.867938  s :     0.867938
      pz      :     0.011729  p :     0.021144
      px      :     0.002954
      py      :     0.006461

  9 H s       :     0.846157  s :     0.846157
      pz      :     0.006898  p :     0.020982
      px      :     0.007075
      py      :     0.007009



                     *******************************
                     * LOEWDIN POPULATION ANALYSIS *
                     *******************************

----------------------
LOEWDIN ATOMIC CHARGES
----------------------
   0 F :    0.154418
   1 O :    0.283948
   2 O :    0.261133
   3 O :    0.099089
   4 C :   -0.414416
   5 C :   -0.258688
   6 C :   -0.541892
   7 H :    0.137001
   8 H :    0.136589
   9 H :    0.142817

-------------------------------
LOEWDIN REDUCED ORBITAL CHARGES
-------------------------------
  0 F s       :     3.605845  s :     3.605845
      pz      :     1.621613  p :     5.207594
      px      :     1.782741
      py      :     1.803241
      dz2     :     0.010721  d :     0.030662
      dxz     :     0.008270
      dyz     :     0.007293
      dx2y2   :     0.001924
      dxy     :     0.002453
      f0      :     0.000388  f :     0.001481
      f+1     :     0.000345
      f-1     :     0.000254
      f+2     :     0.000188
      f-2     :     0.000241
      f+3     :     0.000041
      f-3     :     0.000024

  1 O s       :     3.278348  s :     3.278348
      pz      :     1.552686  p :     4.328054
      px      :     1.250220
      py      :     1.525148
      dz2     :     0.011845  d :     0.102233
      dxz     :     0.019387
      dyz     :     0.009718
      dx2y2   :     0.022745
      dxy     :     0.038538
      f0      :     0.000560  f :     0.007416
      f+1     :     0.000798
      f-1     :     0.000429
      f+2     :     0.000654
      f-2     :     0.001508
      f+3     :     0.001951
      f-3     :     0.001517

  2 O s       :     3.279150  s :     3.279150
      pz      :     1.565202  p :     4.347275
      px      :     1.343280
      py      :     1.438793
      dz2     :     0.013071  d :     0.105026
      dxz     :     0.019310
      dyz     :     0.012611
      dx2y2   :     0.033140
      dxy     :     0.026894
      f0      :     0.000473  f :     0.007415
      f+1     :     0.000904
      f-1     :     0.000528
      f+2     :     0.001401
      f-2     :     0.000858
      f+3     :     0.001419
      f-3     :     0.001832

  3 O s       :     3.425868  s :     3.425868
      pz      :     1.375615  p :     4.406425
      px      :     1.456274
      py      :     1.574536
      dz2     :     0.008405  d :     0.062807
      dxz     :     0.014429
      dyz     :     0.001713
      dx2y2   :     0.022240
      dxy     :     0.016020
      f0      :     0.000505  f :     0.005812
      f+1     :     0.000959
      f-1     :     0.000125
      f+2     :     0.000737
      f-2     :     0.000393
      f+3     :     0.001544
      f-3     :     0.001549

  4 C s       :     2.780355  s :     2.780355
      pz      :     0.850749  p :     2.682216
      px      :     0.845879
      py      :     0.985589
      dz2     :     0.166467  d :     0.804931
      dxz     :     0.209078
      dyz     :     0.129909
      dx2y2   :     0.152264
      dxy     :     0.147212
      f0      :     0.026437  f :     0.146914
      f+1     :     0.020890
      f-1     :     0.020721
      f+2     :     0.018995
      f-2     :     0.020593
      f+3     :     0.021077
      f-3     :     0.018202

  5 C s       :     2.806888  s :     2.806888
      pz      :     1.011025  p :     2.894464
      px      :     0.840316
      py      :     1.043124
      dz2     :     0.082523  d :     0.484611
      dxz     :     0.104833
      dyz     :     0.079805
      dx2y2   :     0.109001
      dxy     :     0.108450
      f0      :     0.006096  f :     0.072724
      f+1     :     0.012588
      f-1     :     0.004500
      f+2     :     0.012249
      f-2     :     0.007789
      f+3     :     0.013775
      f-3     :     0.015729

  6 C s       :     2.750166  s :     2.750166
      pz      :     0.796441  p :     2.580646
      px      :     0.932282
      py      :     0.851923
      dz2     :     0.110416  d :     1.031116
      dxz     :     0.203403
      dyz     :     0.129739
      dx2y2   :     0.270903
      dxy     :     0.316655
      f0      :     0.012800  f :     0.179964
      f+1     :     0.017418
      f-1     :     0.013335
      f+2     :     0.026326
      f-2     :     0.021193
      f+3     :     0.042835
      f-3     :     0.046058

  7 H s       :     0.806619  s :     0.806619
      pz      :     0.025731  p :     0.056379
      px      :     0.019564
      py      :     0.011084

  8 H s       :     0.804699  s :     0.804699
      pz      :     0.032416  p :     0.058712
      px      :     0.009224
      py      :     0.017072

  9 H s       :     0.798377  s :     0.798377
      pz      :     0.020883  p :     0.058806
      px      :     0.019529
      py      :     0.018394



                      *****************************
                      * MAYER POPULATION ANALYSIS *
                      *****************************

  NA   - Mulliken gross atomic population
  ZA   - Total nuclear charge
  QA   - Mulliken gross atomic charge
  VA   - Mayer's total valence
  BVA  - Mayer's bonded valence
  FA   - Mayer's free valence

  ATOM       NA         ZA         QA         VA         BVA        FA
  0 F      9.2017     9.0000    -0.2017     1.0705     1.0705    -0.0000
  1 O      8.2268     8.0000    -0.2268     2.1453     2.1453    -0.0000
  2 O      8.2382     8.0000    -0.2382     2.1307     2.1307     0.0000
  3 O      8.2918     8.0000    -0.2918     2.2156     2.2156    -0.0000
  4 C      5.7530     6.0000     0.2470     4.0816     4.0816     0.0000
  5 C      6.0133     6.0000    -0.0133     3.8455     3.8455     0.0000
  6 C      5.6179     6.0000     0.3821     4.4604     4.4604     0.0000
  7 H      0.9011     1.0000     0.0989     0.9644     0.9644    -0.0000
  8 H      0.8891     1.0000     0.1109     0.9621     0.9621     0.0000
  9 H      0.8671     1.0000     0.1329     0.9654     0.9654     0.0000

  Mayer bond orders larger than 0.100000
B(  0-F ,  4-C ) :   1.0550 B(  1-O ,  4-C ) :   1.0123 B(  1-O ,  6-C ) :   1.1020 
B(  2-O ,  5-C ) :   0.9395 B(  2-O ,  6-C ) :   1.1413 B(  3-O ,  6-C ) :   2.1364 
B(  4-C ,  5-C ) :   0.9862 B(  4-C ,  7-H ) :   0.9695 B(  5-C ,  8-H ) :   0.9477 
B(  5-C ,  9-H ) :   0.9549 

-------
TIMINGS
-------

Total SCF time: 0 days 0 hours 0 min 7 sec 

Total time                  ....       7.256 sec
Sum of individual times     ....       7.048 sec  ( 97.1%)

SCF preparation             ....       0.984 sec  ( 13.6%)
Fock matrix formation       ....       4.648 sec  ( 64.1%)
  Startup                   ....       0.246 sec  (  5.3% of F)
  Split-RI-J                ....       0.641 sec  ( 13.8% of F)
  Chain of spheres X        ....       2.368 sec  ( 50.9% of F)
  XC integration            ....       1.092 sec  ( 23.5% of F)
    XC Preparation          ....       0.000 sec  (  0.0% of XC)
    Basis function eval.    ....       0.094 sec  (  8.6% of XC)
    Density eval.           ....       0.066 sec  (  6.1% of XC)
    XC-Functional eval.     ....       0.020 sec  (  1.8% of XC)
    XC-Potential eval.      ....       0.130 sec  ( 11.9% of XC)
Diagonalization             ....       0.000 sec  (  0.0%)
Density matrix formation    ....       0.429 sec  (  5.9%)
Total Energy calculation    ....       0.215 sec  (  3.0%)
Population analysis         ....       0.071 sec  (  1.0%)
Orbital Transformation      ....       0.075 sec  (  1.0%)
Orbital Orthonormalization  ....       0.000 sec  (  0.0%)
DIIS solution               ....       0.413 sec  (  5.7%)
SOSCF solution              ....       0.213 sec  (  2.9%)
Finished LeanSCF after   7.3 sec

Maximum memory used throughout the entire LEANSCF-calculation: 19.9 MB


-------------------------------------------------------------------------------
                          DFT DISPERSION CORRECTION                            
                                                                               
                              DFTD3 V3.1  Rev 1                                
                          USING Becke-Johnson damping                          
-------------------------------------------------------------------------------
The B3LYP functional is recognized
Active option DFTDOPT                   ...         4   

molecular C6(AA) [au] = 972.600103 


            DFT-D V3
 parameters
 s6 scaling factor         :     1.0000 
 a1 scaling factor         :     0.3981 
 s8 scaling factor         :     1.9889 
 a2 scaling factor         :     4.4211 
 ad hoc parameters k1-k3   :    16.0000     1.3333    -4.0000 

 Edisp/kcal,au: -7.627650233092  -0.012155433081 
 E6   /kcal   :  -3.632435720 
 E8   /kcal   :  -3.995214513 
 % E8         :  52.378050790 

-------------------------   ----------------
Dispersion correction           -0.012155433
-------------------------   ----------------


-------------------------   --------------------
FINAL SINGLE POINT ENERGY      -441.639068169669
-------------------------   --------------------

--------------------------------------------------------------------------
By default, for Open MPI 4.0 and later, infiniband ports on a device
are not used by default.  The intent is to use UCX for these devices.
You can override this policy by setting the btl_openib_allow_ib MCA parameter
to true.

  Local host:              psid09
  Local adapter:           mlx4_0
  Local port:              1

--------------------------------------------------------------------------
--------------------------------------------------------------------------
WARNING: There was an error initializing an OpenFabrics device.

  Local host:   psid09
  Local device: mlx4_0
--------------------------------------------------------------------------


           ************************************************************
           *        Program running with 32 parallel MPI-processes    *
           *              working on a common directory               *
           ************************************************************
------------------------------------------------------------------------------
                         ORCA SCF GRADIENT CALCULATION
------------------------------------------------------------------------------

Nuc. rep. gradient        (SHARK) ... done (  0.0 sec)
HCore & Overlap gradient  (SHARK) ... done (  0.0 sec)
Split-RIJ-J gradient      (SHARK) ... done (  0.2 sec)
COSX-gradient                     ... done (  1.2 sec)
XC gradient                       ... done (  0.2 sec)
Dispersion correction             ... done (  0.0 sec)

-------------------
DISPERSION GRADIENT
-------------------

   1   F   :   -0.000278996    0.000181951   -0.000137069
   2   O   :    0.000059739    0.000195490    0.000051804
   3   O   :    0.000142645   -0.000164089   -0.000058765
   4   O   :    0.000440162    0.000117719   -0.000071573
   5   C   :   -0.000205681    0.000066604    0.000045151
   6   C   :   -0.000139889   -0.000180157    0.000028903
   7   C   :    0.000385087    0.000094773   -0.000049009
   8   H   :   -0.000198327    0.000112814    0.000126106
   9   H   :   -0.000066384   -0.000212337    0.000125250
  10   H   :   -0.000138357   -0.000212768   -0.000060799

Difference to translation invariance:
           :    0.0000000000    0.0000000000   -0.0000000000

Difference to rotation invariance:
           :    0.0000000000   -0.0000000000   -0.0000000000

Norm of the Dispersion gradient    ...    0.0009487998
RMS gradient                       ...    0.0001732264
MAX gradient                       ...    0.0004401620

------------------
CARTESIAN GRADIENT
------------------

   1   F   :    0.009147207   -0.005771243    0.009334961
   2   O   :    0.005056585    0.009096449    0.000376786
   3   O   :   -0.009581689   -0.013230175   -0.002725056
   4   O   :    0.056568650    0.014748142   -0.010844558
   5   C   :    0.002012136   -0.005194842   -0.012181527
   6   C   :    0.000417684    0.017237554    0.000632647
   7   C   :   -0.059392500   -0.007053376    0.015026490
   8   H   :   -0.004910240   -0.005628369    0.001196884
   9   H   :    0.003467206   -0.001709383    0.000051272
  10   H   :   -0.002785040   -0.002494756   -0.000867900

Difference to translation invariance:
           :    0.0000000000    0.0000000000   -0.0000000000

Difference to rotation invariance:
           :   -0.0001397982    0.0002046948    0.0002302960

Norm of the Cartesian gradient     ...    0.0921358855
RMS gradient                       ...    0.0168216343
MAX gradient                       ...    0.0593924998

-------
TIMINGS
-------

Total SCF gradient time     ....        1.642 sec

Densities                   ....       0.001 sec  (  0.0%)
One electron gradient       ....       0.017 sec  (  1.1%)
RI-J Coulomb gradient       ....       0.200 sec  ( 12.2%)
COSX gradient               ....       1.202 sec  ( 73.2%)
XC gradient                 ....       0.174 sec  ( 10.6%)

Maximum memory used throughout the entire SCFGRAD-calculation: 31.4 MB
[psid09:151664] 31 more processes have sent help message help-mpi-btl-openib.txt / ib port not selected
[psid09:151664] Set MCA parameter "orte_base_help_aggregate" to 0 to see all help / error messages
[psid09:151664] 31 more processes have sent help message help-mpi-btl-openib.txt / error in device init
------------------------------------------------------------------------------
                         ORCA GEOMETRY RELAXATION STEP
------------------------------------------------------------------------------

Reading the OPT-File                    .... done
Getting information on internals        .... done
Copying old internal coords+grads       .... done
Making the new internal coordinates     .... (2022 redundants) done
Validating the new internal coordinates .... (2022 redundants) done
Calculating the B-matrix                .... done
Calculating the G,G- and P matrices     .... done
Transforming gradient to internals      .... done
Projecting the internal gradient        .... done
Number of atoms                         ....  10
Number of internal coordinates          ....  43
Current Energy                          ....  -441.639068170 Eh
Current gradient norm                   ....     0.092135886 Eh/bohr
Maximum allowed component of the step   ....  0.300
Current trust radius                    ....  0.300
Evaluating the initial hessian          ....  (Almloef) done
Projecting the Hessian                  .... done
Forming the augmented Hessian           .... done
Diagonalizing the augmented Hessian     .... done
Last element of RFO vector              ....  0.983922338
Lowest eigenvalues of augmented Hessian:
 -0.006096210  0.020724542  0.024560566  0.026915315  0.113710318
Length of the computed step             ....  0.181515181
The final length of the internal step   ....  0.181515181
Converting the step to Cartesian space:
 Initial RMS(Int)=    0.0276808057
Transforming coordinates:
 Iter   0:  RMS(Cart)=    0.0323098741 RMS(Int)=    0.0277160234
done
Storing new coordinates                 .... done

                                .--------------------.
          ----------------------|Geometry convergence|-------------------------
          Item                value                   Tolerance       Converged
          ---------------------------------------------------------------------
          RMS gradient        0.0100929949            0.0000300000      NO
          MAX gradient        0.0594437121            0.0001000000      NO
          RMS step            0.0276808057            0.0006000000      NO
          MAX step            0.0724189409            0.0010000000      NO
          ........................................................
          Max(Bonds)      0.0301      Max(Angles)    1.46
          Max(Dihed)        4.15      Max(Improp)    0.00
          ---------------------------------------------------------------------

The optimization has not yet converged - more geometry cycles are needed


    ---------------------------------------------------------------------------
                         Redundant Internal Coordinates
                            (Angstroem and degrees)

        Definition                    Value    dE/dq     Step     New-Value
    ----------------------------------------------------------------------------
     1. B(C   4,O   1)                1.4153  0.004247 -0.0036    1.4117   
     2. B(C   4,F   0)                1.3570 -0.013557  0.0121    1.3691   
     3. B(C   5,O   2)                1.4230 -0.008316  0.0095    1.4325   
     4. B(C   5,C   4)                1.4933 -0.011593  0.0154    1.5087   
     5. B(C   6,O   2)                1.3683  0.010314 -0.0100    1.3582   
     6. B(C   6,O   3)                1.2218  0.059444 -0.0301    1.1917   
     7. B(C   6,O   1)                1.3678 -0.001358  0.0001    1.3679   
     8. B(H   7,C   4)                1.0929  0.002851 -0.0042    1.0887   
     9. B(H   8,C   5)                1.0945  0.001109 -0.0016    1.0929   
    10. B(H   9,C   5)                1.0929  0.003544 -0.0052    1.0877   
    11. A(C   4,O   1,C   6)          106.89 -0.008340    1.46    108.35   
    12. A(C   5,O   2,C   6)          107.37 -0.003183    0.75    108.12   
    13. A(F   0,C   4,O   1)          107.68 -0.001875    0.63    108.31   
    14. A(F   0,C   4,H   7)          109.13  0.003535   -0.50    108.63   
    15. A(O   1,C   4,C   5)          103.65  0.006662   -0.71    102.94   
    16. A(O   1,C   4,H   7)          112.14  0.001971   -1.38    110.76   
    17. A(C   5,C   4,H   7)          113.97 -0.006288    1.16    115.13   
    18. A(F   0,C   4,C   5)          110.02 -0.003948    0.82    110.84   
    19. A(C   4,C   5,H   8)          112.66  0.000857   -0.57    112.08   
    20. A(O   2,C   5,H   8)          108.05 -0.000830    0.52    108.57   
    21. A(C   4,C   5,H   9)          112.91 -0.000669    0.01    112.92   
    22. A(O   2,C   5,C   4)          102.56  0.002358    0.08    102.64   
    23. A(H   8,C   5,H   9)          110.07 -0.002283    0.25    110.32   
    24. A(O   2,C   5,H   9)          110.24  0.000911   -0.28    109.97   
    25. A(O   1,C   6,O   2)          110.66  0.002647   -0.42    110.24   
    26. A(O   2,C   6,O   3)          124.66 -0.002747    0.38    125.04   
    27. A(O   1,C   6,O   3)          124.69  0.000102    0.04    124.72   
    28. D(F   0,C   4,O   1,C   6)    -91.71  0.001411   -1.92    -93.63   
    29. D(C   5,C   4,O   1,C   6)     24.85 -0.000693   -1.07     23.79   
    30. D(H   7,C   4,O   1,C   6)    148.23 -0.002924   -0.89    147.34   
    31. D(H   8,C   5,C   4,H   7)    -35.82 -0.004561    4.15    -31.67   
    32. D(H   9,C   5,O   2,C   6)    144.38  0.000588   -2.02    142.36   
    33. D(O   2,C   5,C   4,F   0)     85.34 -0.002395    2.94     88.28   
    34. D(H   8,C   5,O   2,C   6)    -95.30 -0.002169   -1.56    -96.85   
    35. D(O   2,C   5,C   4,H   7)   -151.73 -0.005322    3.75   -147.98   
    36. D(H   8,C   5,C   4,F   0)   -158.75 -0.001633    3.34   -155.41   
    37. D(H   8,C   5,C   4,O   1)     86.35 -0.001178    2.62     88.97   
    38. D(O   2,C   5,C   4,O   1)    -29.56 -0.001940    2.22    -27.34   
    39. D(C   4,C   5,O   2,C   6)     23.89 -0.000382   -1.94     21.95   
    40. D(O   1,C   6,O   2,C   5)     -9.32  0.000462    1.33     -7.99   
    41. D(O   3,C   6,O   1,C   4)    169.65  0.000949    0.69    170.35   
    42. D(O   2,C   6,O   1,C   4)    -10.55  0.001658   -0.33    -10.88   
    43. D(O   3,C   6,O   2,C   5)    170.48  0.001177    0.30    170.78   
    ----------------------------------------------------------------------------

Geometry step timings:
Preparation and reading OPT file:      0.000 s ( 9.381 %)
Internal coordinates            :      0.000 s ( 0.521 %)
B/P matrices and projection     :      0.000 s ( 6.935 %)
Hessian update/contruction      :      0.002 s (47.625 %)
Making the step                 :      0.001 s (10.503 %)
Converting the step to Cartesian:      0.000 s ( 1.363 %)
Storing new data                :      0.000 s ( 8.819 %)
Checking convergence            :      0.000 s ( 0.080 %)
Final printing                  :      0.001 s (14.512 %)
Total time                      :      0.005 s
--------------------------------------------------------------------------
By default, for Open MPI 4.0 and later, infiniband ports on a device
are not used by default.  The intent is to use UCX for these devices.
You can override this policy by setting the btl_openib_allow_ib MCA parameter
to true.

  Local host:              psid09
  Local adapter:           mlx4_0
  Local port:              1

--------------------------------------------------------------------------
--------------------------------------------------------------------------
WARNING: There was an error initializing an OpenFabrics device.

  Local host:   psid09
  Local device: mlx4_0
--------------------------------------------------------------------------
[psid09:151771] 31 more processes have sent help message help-mpi-btl-openib.txt / ib port not selected
[psid09:151771] Set MCA parameter "orte_base_help_aggregate" to 0 to see all help / error messages
[psid09:151771] 31 more processes have sent help message help-mpi-btl-openib.txt / error in device init

Time for energy+gradient        :     13.845 s
Time for complete geometry iter :     15.060 s

         *************************************************************
         *                GEOMETRY OPTIMIZATION CYCLE   2            *
         *************************************************************
---------------------------------
CARTESIAN COORDINATES (ANGSTROEM)
---------------------------------
  F     -1.779699    0.694538   -0.741365
  O      0.063691    0.891933    0.541434
  O      0.506477   -1.141598   -0.276758
  O      2.151886    0.411093   -0.204655
  C     -1.186541    0.249687    0.409616
  C     -0.807534   -1.205715    0.290025
  C      1.021971    0.086318   -0.009826
  H     -1.834842    0.490876    1.250363
  H     -0.742605   -1.694798    1.265231
  H     -1.469503   -1.763334   -0.368766

----------------------------
CARTESIAN COORDINATES (A.U.)
----------------------------
  NO LB      ZA    FRAG     MASS         X           Y           Z
   0 F     9.0000    0    18.998   -3.363143    1.312486   -1.400977
   1 O     8.0000    0    15.999    0.120358    1.685509    1.023162
   2 O     8.0000    0    15.999    0.957102   -2.157307   -0.522996
   3 O     8.0000    0    15.999    4.066474    0.776853   -0.386741
   4 C     6.0000    0    12.011   -2.242237    0.471839    0.774062
   5 C     6.0000    0    12.011   -1.526018   -2.278472    0.548067
   6 C     6.0000    0    12.011    1.931245    0.163118   -0.018568
   7 H     1.0000    0     1.008   -3.467350    0.927622    2.362844
   8 H     1.0000    0     1.008   -1.403321   -3.202704    2.390941
   9 H     1.0000    0     1.008   -2.776958   -3.332218   -0.696866

--------------------------------
INTERNAL COORDINATES (ANGSTROEM)
--------------------------------
 F      0   0   0     0.000000000000     0.00000000     0.00000000
 O      1   0   0     2.254467152890     0.00000000     0.00000000
 O      2   1   0     2.236234209233    82.76692180     0.00000000
 O      3   2   1     2.263496690124    60.56020739   134.98008667
 C      1   2   3     1.369119064193    36.47266904    72.74616563
 C      3   2   1     1.432472646126    73.39965540   306.44764101
 C      4   3   2     1.191697879761    29.42671026   359.19351765
 H      5   1   2     1.088725355797   108.61647154   120.36850204
 H      6   3   2     1.092907197936   108.57766267   258.36185114
 H      6   3   2     1.087724864766   109.97194785   137.57523210

---------------------------
INTERNAL COORDINATES (A.U.)
---------------------------
 F      0   0   0     0.000000000000     0.00000000     0.00000000
 O      1   0   0     4.260325496884     0.00000000     0.00000000
 O      2   1   0     4.225870226757    82.76692180     0.00000000
 O      3   2   1     4.277388849372    60.56020739   134.98008667
 C      1   2   3     2.587260076056    36.47266904    72.74616563
 C      3   2   1     2.706980995512    73.39965540   306.44764101
 C      4   3   2     2.251982627122    29.42671026   359.19351765
 H      5   1   2     2.057392757511   108.61647154   120.36850204
 H      6   3   2     2.065295293890   108.57766267   258.36185114
 H      6   3   2     2.055502103464   109.97194785   137.57523210

--------------------------------------------------------------------------
By default, for Open MPI 4.0 and later, infiniband ports on a device
are not used by default.  The intent is to use UCX for these devices.
You can override this policy by setting the btl_openib_allow_ib MCA parameter
to true.

  Local host:              psid09
  Local adapter:           mlx4_0
  Local port:              1

--------------------------------------------------------------------------
--------------------------------------------------------------------------
WARNING: There was an error initializing an OpenFabrics device.

  Local host:   psid09
  Local device: mlx4_0
--------------------------------------------------------------------------


           ************************************************************
           *        Program running with 32 parallel MPI-processes    *
           *              working on a common directory               *
           ************************************************************
------------------------------------------------------------------------------
                   ___                                                        
                  /   \      - P O W E R E D   B Y -                         
                 /     \                                                     
                 |  |  |   _    _      __       _____    __    __             
                 |  |  |  | |  | |    /  \     |  _  \  |  |  /  |          
                  \  \/   | |  | |   /    \    | | | |  |  | /  /          
                 / \  \   | |__| |  /  /\  \   | |_| |  |  |/  /          
                |  |  |   |  __  | /  /__\  \  |    /   |      \           
                |  |  |   | |  | | |   __   |  |    \   |  |\   \          
                \     /   | |  | | |  |  |  |  | |\  \  |  | \   \       
                 \___/    |_|  |_| |__|  |__|  |_| \__\ |__|  \__/        
                                                                              
                      - O R C A' S   B I G   F R I E N D -                    
                                      &                                       
                       - I N T E G R A L  F E E D E R -                       
[...]
   7 H :    0.132668
   8 H :    0.133208
   9 H :    0.139635

-------------------------------
LOEWDIN REDUCED ORBITAL CHARGES
-------------------------------
  0 F s       :     3.623778  s :     3.623778
      pz      :     1.651505  p :     5.225707
      px      :     1.757601
      py      :     1.816601
      dz2     :     0.008624  d :     0.028387
      dxz     :     0.008795
      dyz     :     0.005677
      dx2y2   :     0.002280
      dxy     :     0.003010
      f0      :     0.000282  f :     0.001331
      f+1     :     0.000344
      f-1     :     0.000159
      f+2     :     0.000198
      f-2     :     0.000252
      f+3     :     0.000053
      f-3     :     0.000043

  1 O s       :     3.269330  s :     3.269330
      pz      :     1.559413  p :     4.335543
      px      :     1.252444
      py      :     1.523686
      dz2     :     0.011477  d :     0.104365
      dxz     :     0.018302
      dyz     :     0.008426
      dx2y2   :     0.023928
      dxy     :     0.042233
      f0      :     0.000601  f :     0.007428
      f+1     :     0.000833
      f-1     :     0.000380
      f+2     :     0.000524
      f-2     :     0.001241
      f+3     :     0.002215
      f-3     :     0.001635

  2 O s       :     3.270959  s :     3.270959
      pz      :     1.577853  p :     4.350823
      px      :     1.333870
      py      :     1.439100
      dz2     :     0.012255  d :     0.105666
      dxz     :     0.016880
      dyz     :     0.011197
      dx2y2   :     0.037857
      dxy     :     0.027476
      f0      :     0.000512  f :     0.007413
      f+1     :     0.000784
      f-1     :     0.000598
      f+2     :     0.001171
      f-2     :     0.000556
      f+3     :     0.001604
      f-3     :     0.002187

  3 O s       :     3.394847  s :     3.394847
      pz      :     1.342530  p :     4.378949
      px      :     1.479017
      py      :     1.557402
      dz2     :     0.008741  d :     0.067630
      dxz     :     0.016099
      dyz     :     0.002151
      dx2y2   :     0.022712
      dxy     :     0.017927
      f0      :     0.000603  f :     0.006814
      f+1     :     0.001080
      f-1     :     0.000159
      f+2     :     0.000858
      f-2     :     0.000522
      f+3     :     0.001752
      f-3     :     0.001841

  4 C s       :     2.788020  s :     2.788020
      pz      :     0.868964  p :     2.678562
      px      :     0.828920
      py      :     0.980677
      dz2     :     0.157313  d :     0.790322
      dxz     :     0.208399
      dyz     :     0.114341
      dx2y2   :     0.156459
      dxy     :     0.153811
      f0      :     0.021268  f :     0.142361
      f+1     :     0.021044
      f-1     :     0.016055
      f+2     :     0.018945
      f-2     :     0.023728
      f+3     :     0.022493
      f-3     :     0.018827

  5 C s       :     2.813859  s :     2.813859
      pz      :     1.041537  p :     2.894426
      px      :     0.813951
      py      :     1.038938
      dz2     :     0.068427  d :     0.463826
      dxz     :     0.106767
      dyz     :     0.074370
      dx2y2   :     0.113465
      dxy     :     0.100796
      f0      :     0.006197  f :     0.069287
      f+1     :     0.010822
      f-1     :     0.004625
      f+2     :     0.011415
      f-2     :     0.005800
      f+3     :     0.014313
      f-3     :     0.016114

  6 C s       :     2.738954  s :     2.738954
      pz      :     0.791343  p :     2.592149
      px      :     0.941174
      py      :     0.859631
      dz2     :     0.099306  d :     1.066044
      dxz     :     0.197156
      dyz     :     0.139181
      dx2y2   :     0.288616
      dxy     :     0.341785
      f0      :     0.012248  f :     0.188734
      f+1     :     0.016019
      f-1     :     0.012607
      f+2     :     0.026446
      f-2     :     0.022555
      f+3     :     0.049736
      f-3     :     0.049123

  7 H s       :     0.809925  s :     0.809925
      pz      :     0.028955  p :     0.057407
      px      :     0.016370
      py      :     0.012082

  8 H s       :     0.807269  s :     0.807269
      pz      :     0.032686  p :     0.059523
      px      :     0.008686
      py      :     0.018151

  9 H s       :     0.800216  s :     0.800216
      pz      :     0.025190  p :     0.060149
      px      :     0.017362
      py      :     0.017596



                      *****************************
                      * MAYER POPULATION ANALYSIS *
                      *****************************

  NA   - Mulliken gross atomic population
  ZA   - Total nuclear charge
  QA   - Mulliken gross atomic charge
  VA   - Mayer's total valence
  BVA  - Mayer's bonded valence
  FA   - Mayer's free valence

  ATOM       NA         ZA         QA         VA         BVA        FA
  0 F      9.2150     9.0000    -0.2150     1.0502     1.0502    -0.0000
  1 O      8.2315     8.0000    -0.2315     2.1378     2.1378     0.0000
  2 O      8.2407     8.0000    -0.2407     2.1403     2.1403     0.0000
  3 O      8.2399     8.0000    -0.2399     2.2620     2.2620     0.0000
  4 C      5.7585     6.0000     0.2415     4.0893     4.0893     0.0000
  5 C      6.0084     6.0000    -0.0084     3.8334     3.8334     0.0000
  6 C      5.6436     6.0000     0.3564     4.4973     4.4973     0.0000
  7 H      0.9035     1.0000     0.0965     0.9624     0.9624     0.0000
  8 H      0.8890     1.0000     0.1110     0.9595     0.9595    -0.0000
  9 H      0.8699     1.0000     0.1301     0.9686     0.9686    -0.0000

  Mayer bond orders larger than 0.100000
B(  0-F ,  4-C ) :   1.0447 B(  1-O ,  4-C ) :   1.0421 B(  1-O ,  6-C ) :   1.0797 
B(  2-O ,  5-C ) :   0.9468 B(  2-O ,  6-C ) :   1.1549 B(  3-O ,  6-C ) :   2.1841 
B(  4-C ,  5-C ) :   0.9752 B(  4-C ,  7-H ) :   0.9748 B(  5-C ,  8-H ) :   0.9460 
B(  5-C ,  9-H ) :   0.9560 

-------
TIMINGS
-------

Total SCF time: 0 days 0 hours 0 min 3 sec 

Total time                  ....       3.142 sec
Sum of individual times     ....       2.997 sec  ( 95.4%)

SCF preparation             ....       1.025 sec  ( 32.6%)
Fock matrix formation       ....       1.488 sec  ( 47.4%)
  Startup                   ....       0.082 sec  (  5.5% of F)
  Split-RI-J                ....       0.165 sec  ( 11.1% of F)
  Chain of spheres X        ....       0.918 sec  ( 61.7% of F)
  XC integration            ....       0.238 sec  ( 16.0% of F)
    XC Preparation          ....       0.000 sec  (  0.0% of XC)
    Basis function eval.    ....       0.022 sec  (  9.4% of XC)
    Density eval.           ....       0.018 sec  (  7.5% of XC)
    XC-Functional eval.     ....       0.005 sec  (  2.0% of XC)
    XC-Potential eval.      ....       0.030 sec  ( 12.7% of XC)
Diagonalization             ....       0.000 sec  (  0.0%)
Density matrix formation    ....       0.124 sec  (  4.0%)
Total Energy calculation    ....       0.056 sec  (  1.8%)
Population analysis         ....       0.073 sec  (  2.3%)
Orbital Transformation      ....       0.052 sec  (  1.7%)
Orbital Orthonormalization  ....       0.000 sec  (  0.0%)
DIIS solution               ....       0.072 sec  (  2.3%)
SOSCF solution              ....       0.106 sec  (  3.4%)
Finished LeanSCF after   3.2 sec

Maximum memory used throughout the entire LEANSCF-calculation: 21.0 MB
[psid09:157542] 31 more processes have sent help message help-mpi-btl-openib.txt / ib port not selected
[psid09:157542] Set MCA parameter "orte_base_help_aggregate" to 0 to see all help / error messages
[psid09:157542] 31 more processes have sent help message help-mpi-btl-openib.txt / error in device init


-------------------------------------------------------------------------------
                          DFT DISPERSION CORRECTION                            
                                                                               
                              DFTD3 V3.1  Rev 1                                
                          USING Becke-Johnson damping                          
-------------------------------------------------------------------------------
The B3LYP functional is recognized
Active option DFTDOPT                   ...         4   

molecular C6(AA) [au] = 975.183494 


            DFT-D V3
 parameters
 s6 scaling factor         :     1.0000 
 a1 scaling factor         :     0.3981 
 s8 scaling factor         :     1.9889 
 a2 scaling factor         :     4.4211 
 ad hoc parameters k1-k3   :    16.0000     1.3333    -4.0000 

 Edisp/kcal,au: -7.577377872552  -0.012075318983 
 E6   /kcal   :  -3.608850807 
 E8   /kcal   :  -3.968527065 
 % E8         :  52.373355691 

-------------------------   ----------------
Dispersion correction           -0.012075319
-------------------------   ----------------


-------------------------   --------------------
FINAL SINGLE POINT ENERGY      -441.644557030070
-------------------------   --------------------

                                *** OPTIMIZATION RUN DONE ***

--------------------------------------------------------------------------
By default, for Open MPI 4.0 and later, infiniband ports on a device
are not used by default.  The intent is to use UCX for these devices.
You can override this policy by setting the btl_openib_allow_ib MCA parameter
to true.

  Local host:              psid09
  Local adapter:           mlx4_0
  Local port:              1

--------------------------------------------------------------------------
--------------------------------------------------------------------------
WARNING: There was an error initializing an OpenFabrics device.

  Local host:   psid09
  Local device: mlx4_0
--------------------------------------------------------------------------


           ************************************************************
           *        Program running with 32 parallel MPI-processes    *
           *              working on a common directory               *
           ************************************************************

------------------------------------------------------------------------------
                              ORCA PROPERTY CALCULATIONS
------------------------------------------------------------------------------

GBWName                                 ... FEC.gbw
Number of atoms                         ...     10
Number of basis functions               ...    235
Max core memory                         ...   5000 MB

Electric properties:
Dipole moment                           ... YES
Quadrupole moment                       ...  NO
Static polarizability (Dipole/Dipole)   ...  NO
Static polarizability (Dipole/Quad.)    ...  NO
Static polarizability (Quad./Quad.)     ...  NO
Static polarizability (Velocity)        ...  NO

Atomic electric properties:
Dipole moment                           ...  NO
Quadrupole moment                       ...  NO
Static polarizability                   ...  NO

Choice of electric origin               ... Center of mass
Position of electric origin             ...    -0.123793     0.032216    -0.028374

General magnetic properties:
Magnetizability                         ...  NO

EPR properties:
g-Tensor (aka g-matrix)                 ...  NO
Zero-Field splitting spin-orbit         ...  NO
Zero-field splitting spin-spin          ...  NO
Hyperfine couplings                     ...  NO (   0 nuclei)
Quadrupole couplings                    ...  NO (   0 nuclei)
Contact density                         ...  NO (   0 nuclei)

NMR properties:
Chemical shifts                         ...  NO (   0 nuclei)
Spin-rotation constants                 ...  NO (   0 nuclei)
Spin-spin couplings                     ...  NO (   0 nuclei,    0 pairs)

Choice of magnetic origin               ... GIAO
Position of magnetic origin             ...     0.000000     0.000000     0.000000

Properties with geometric perturbations:
SCF Hessian                             ...  NO
IR spectrum                             ...  NO
VCD spectrum                            ...  NO
X-ray spectroscopy properties:
SCF XES/XAS/RIXS spectra                ...  NO


-------------
DIPOLE MOMENT
-------------

Method             : SCF
Type of density    : Electron Density
Multiplicity       :   1
Irrep              :   0
Energy             :  -441.6324817110871663 Eh
Relativity type    : 
Basis              : AO
                                X                 Y                 Z
Electronic contribution:      0.390240781       2.554344516      -1.807555054
Nuclear contribution   :     -1.847785760      -3.401133951       2.625384187
                        -----------------------------------------
Total Dipole Moment    :     -1.457544979      -0.846789435       0.817829133
                        -----------------------------------------
Magnitude (a.u.)       :      1.873588590
Magnitude (Debye)      :      4.762283730



--------------------
Rotational spectrum 
--------------------
 
Rotational constants in cm-1:             0.185639             0.080019             0.064143 
Rotational constants in MHz :          5565.321347          2398.898683          1922.943855 

Dipole components along the rotational axes: 
x,y,z [a.u.] :     1.380553    -0.996751     0.781597 
x,y,z [Debye]:     3.509087    -2.533541     1.986662 

 

Dipole moment calculation done in   0.0 sec 

Maximum memory used throughout the entire PROP-calculation: 11.0 MB
[psid09:157650] 31 more processes have sent help message help-mpi-btl-openib.txt / ib port not selected
[psid09:157650] Set MCA parameter "orte_base_help_aggregate" to 0 to see all help / error messages
[psid09:157650] 31 more processes have sent help message help-mpi-btl-openib.txt / error in device init
--------------------------------------------------------------------------
By default, for Open MPI 4.0 and later, infiniband ports on a device
are not used by default.  The intent is to use UCX for these devices.
You can override this policy by setting the btl_openib_allow_ib MCA parameter
to true.

  Local host:              psid09
  Local adapter:           mlx4_0
  Local port:              1

--------------------------------------------------------------------------
--------------------------------------------------------------------------
WARNING: There was an error initializing an OpenFabrics device.

  Local host:   psid09
  Local device: mlx4_0
--------------------------------------------------------------------------
[psid09:157763] 31 more processes have sent help message help-mpi-btl-openib.txt / ib port not selected
[psid09:157763] Set MCA parameter "orte_base_help_aggregate" to 0 to see all help / error messages
[psid09:157763] 31 more processes have sent help message help-mpi-btl-openib.txt / error in device init

--------------------------------
SUGGESTED CITATIONS FOR THIS RUN
--------------------------------

Below you find a list of papers that are relevant to this ORCA run
We neither can nor want to force you to cite these papers, but we appreciate if you do
You receive ORCA, which is the product of decades of hard work by many enthusiastic individuals, for free
The only thing we kindly ask in return is that you cite our papers,
We deeply appreciate it, if you show your appreciation for ORCA by not just citing the generic ORCA reference.

Please note that relegating all ORCA citations to the supporting information does *not* help us.
SI sections are not indexed - citations you put there will not count into any citation statistics
But we need these citations in order to attract the funding resources that allow us to do what we are doing

Therefore, if you are a happy ORCA user, please consider citing a few of the papers listed below in the main body of your paper

In addition to the list printed below, the program has created the file FEC.bibtex that contains the list in bibtex format
You can import this file easily into all common literature databanks and citation aid programs


List of essential papers. We consider these as the minimum necessary citations

  1. Neese,F.
     Software update: the ORCA program system, version 5.0
     WIRES Comput. Molec. Sci., 2022 12(1)e1606
     doi.org/10.1002/wcms.1606

List of papers to cite with high priority. The work reported in these papers was absolutely
necessary for this run to complete.
Our perspective: the developers of density functionals and basis sets usually get cited in chemistry papers
Good! But without the algorithms to do something with them, the functionals or basis sets would not do anything.
Hence, in our opinion, the algorithm design and method developments papers are equally worthy of getting cited

  1. Neese,F.
     An improvement of the resolution of the identity approximation for the formation of the Coulomb matrix
     J. Comp. Chem., 2003 24(14)1740-1747
     doi.org/10.1002/jcc.10318
  2. Neese,F.; Wennmohs,F.; Hansen,A.; Becker,U.
     Efficient, approximate and parallel Hartree-Fock and hybrid DFT calculations. A 'chain-of-spheres' algorithm for the Hartree-Fock exchange
     Chem. Phys., 2009 356(1-3)98-109
     doi.org/10.1016/j.chemphys.2008.10.036
  3. Helmich-Paris,B.; de Souza,B.; Neese,F.; Izsák,R.
     An improved chain of spheres for exchange algorithm
     J. Chem. Phys., 2021 155 104109
     doi.org/doi: 10.1063/5.0058766.
  4. Neese,F.
     The SHARK Integral Generation and Digestion System
     J. Comp. Chem., 2022  1-16
     doi.org/10.1002/jcc.26942
  5. Grimme,S.; Antony,J.; Ehrlich,S.; Krieg,H.
     A consistent and accurate ab initio parametrization of density functional dispersion correction (DFT-D) for the 94 elements H-Pu
     J. Chem. Phys., 2010 132 154104
     doi.org/10.1063/1.3382344
  6. Grimme,S.; Ehrlich,S.; Goerigk,L.
     Effect of the damping function in dispersion corrected density functional theory
     J. Comput. Chem., 2011 32(7)1456-1465
     doi.org/10.1002/jcc.21759

List of suggested additional citations. These are papers that are important in the 'surrounding' of 
of this run, or papers that preceded the highly important papers. If you like your results we are grateful for a citation.

  1. Izsak,R.; Neese,F.
     An overlap fitted chain of spheres exchange method
     J. Chem. Phys., 2011 135 144105
     doi.org/10.1063/1.3646921
  2. Izsak,R.; Hansen,A.; Neese,F.
     The resolution of identity and chain of spheres approximations for the LPNO-CCSD singles Fock term
     Molec. Phys., 2012 110 2413-2417
     doi.org/10.1080/00268976.2012.687466
  3. Neese,F.
     The ORCA program system
     WIRES Comput. Molec. Sci., 2012 2(1)73-78
     doi.org/10.1002/wcms.81
  4. Izsak,R.; Neese,F.; Klopper,W.
     Robust fitting techniques in the chain of spheres approximation to the Fock exchange: The role of the complementary space
     J. Chem. Phys., 2013 139 
     doi.org/10.1063/1.4819264
  5. Neese,F.
     Software update: the ORCA program system, version 4.0
     WIRES Comput. Molec. Sci., 2018 8(1)1-6
     doi.org/10.1002/wcms.1327
  6. Neese,F.; Wennmohs,F.; Becker,U.; Riplinger,C.
     The ORCA quantum chemistry program package
     J. Chem. Phys., 2020 152 Art. No. L224108
     doi.org/10.1063/5.0004608

List of optional additional citations

  1. Neese,F.
     Approximate second-order SCF convergence for spin unrestricted wavefunctions
     Chem. Phys. Lett., 2000 325(1-3)93-98
     doi.org/10.1016/s0009-2614(00)00662-x

Timings for individual modules:

Sum of individual times          ...      128.560 sec (=   2.143 min)
Startup calculation              ...       21.359 sec (=   0.356 min)  16.6 %
SCF iterations                   ...       77.193 sec (=   1.287 min)  60.0 %
Property calculations            ...        1.024 sec (=   0.017 min)   0.8 %
SCF Gradient evaluation          ...       28.910 sec (=   0.482 min)  22.5 %
Geometry relaxation              ...        0.074 sec (=   0.001 min)   0.1 %
                             ****ORCA TERMINATED NORMALLY****
TOTAL RUN TIME: 0 days 0 hours 2 minutes 26 seconds 134 msec
