
                                 *****************
                                 * O   R   C   A *
                                 *****************

                                            #,                                       
                                            ###                                      
                                            ####                                     
                                            #####                                    
                                            ######                                   
                                           ########,                                 
                                     ,,################,,,,,                         
                               ,,#################################,,                 
                          ,,##########################################,,             
                       ,#########################################, ''#####,          
                    ,#############################################,,   '####,        
                  ,##################################################,,,,####,       
                ,###########''''           ''''###############################       
              ,#####''   ,,,,##########,,,,          '''####'''          '####       
            ,##' ,,,,###########################,,,                        '##       
           ' ,,###''''                  '''############,,,                           
         ,,##''                                '''############,,,,        ,,,,,,###''
      ,#''                                            '''#######################'''  
     '                                                          ''''####''''         
             ,#######,   #######,   ,#######,      ##                                
            ,#'     '#,  ##    ##  ,#'     '#,    #''#        ,####,   ,####,        
            ##       ##  ##   ,#'  ##            #'  '#       #'       #'  '#        
            ##       ##  #######   ##           ,######,      #####,   #    #        
            '#,     ,#'  ##    ##  '#,     ,#' ,#      #,     #,   #   #,  ,#        
             '#######'   ##     ##  '#######'  #'      '#     '####' # '####'        



                #########################################################
                #                        -***-                          #
                #          Department of theory and spectroscopy        #
                #                                                       #
                #                      Frank Neese                      #
                #                                                       #
                #     Directorship, Architecture, Infrastructure        #
                #                    SHARK, DRIVERS                     #
                #        Core code/Algorithms in most modules           #
                #                                                       #
                #        Max Planck Institute fuer Kohlenforschung      #
                #                Kaiser Wilhelm Platz 1                 #
                #                 D-45470 Muelheim/Ruhr                 #
                #                      Germany                          #
                #                                                       #
                #                  All rights reserved                  #
                #                        -***-                          #
                #########################################################


                         Program Version 6.0.1  -  RELEASE   -


 With contributions from (in alphabetic order):
[Max-Planck-Institut fuer Kohlenforschung]                               
  Daniel Aravena         : Magnetic Suceptibility                        
  Michael Atanasov       : Ab Initio Ligand Field Theory (pilot matlab implementation)
  Alexander A. Auer      : GIAO ZORA, VPT2 properties, NMR spectrum      
  Ute Becker             : All parallelization in ORCA, NUMFREQ, NUMCALC 
  Giovanni Bistoni       : ED, misc. LED, open-shell LED, HFLD           
  Martin Brehm           : Molecular dynamics                            
  Dmytro Bykov           : pre 5.0 version of the SCF Hessian            
  Marcos Casanova-Páez   : Triplet and SCS-CIS(D). UHF-(DLPNO)-IP/EA/STEOM-CCSD. UHF-CVS-IP/STEOM-CCSD   
  Vijay G. Chilkuri      : MRCI spin determinant printing, contributions to CSF-ICE 
  Pauline Colinet        : FMM embedding                                 
  Dipayan Datta          : RHF DLPNO-CCSD density                        
  Achintya Kumar Dutta   : EOM-CC, STEOM-CC                              
  Nicolas Foglia         : Exact transition moments, OPA infrastructure, MCD improvements    
  Dmitry Ganyushin       : Spin-Orbit,Spin-Spin,Magnetic field MRCI      
  Miquel Garcia-Rates    : C-PCM and meta-GGA Hessian, CCSD/C-PCM, Gaussian charge scheme 
  Tiago L. C. Gouveia    : GS-ROHF, GS-ROCIS                             
  Yang Guo               : DLPNO-NEVPT2, F12-NEVPT2, CIM, IAO-localization        
  Andreas Hansen         : Spin unrestricted coupled pair/coupled cluster methods 
  Ingolf Harden          : AUTO-CI MPn and infrastructure                
  Benjamin Helmich-Paris : MC-RPA, TRAH-(SCF,CASSCF), AVAS, COSX integrals, SCF dyn. polar. 
  Lee Huntington         : MR-EOM, pCC                                   
  Robert Izsak           : Overlap fitted RIJCOSX, COSX-SCS-MP3, EOM     
  Riya Kayal             : Wick's Theorem for AUTO-CI, AUTO-CI UHF-CCSDT 
  Emily Kempfer          : AUTO-CI, RHF CISDT and CCSDT                  
  Christian Kollmar      : KDIIS, OOCD, Brueckner-CCSD(T), CCSD density, CASPT2, CASPT2-K, improved NEVPT2 
  Axel Koslowski         : Symmetry handling                             
  Simone Kossmann        : meta-GGA functionals, TD-DFT gradient, OOMP2, (MP2 Hessian; deprecated post 5.0) 
  Lucas Lang             : DCDCAS                                        
  Marvin Lechner         : AUTO-CI (C++ implementation), FIC-MRCC        
  Spencer Leger          : CASSCF response                               
  Dagmar Lenk            : GEPOL surface, SMD, ORCA-2-JSON               
  Dimitrios Liakos       : Extrapolation schemes; Compound Job, initial MDCI parallelization 
  Dimitrios Manganas     : Further ROCIS development; embedding schemes. LFT, Crystal Embedding 
  Dimitrios Pantazis     : SARC Basis sets                               
  Anastasios Papadopoulos: AUTO-CI, single reference methods and gradients 
  Taras Petrenko         : pre 6.0 DFT Hessian and TD-DFT gradient, (ASA, deprecated), ECA, 1-Electron XAS/XES, NRVS 
  Peter Pinski           : DLPNO-MP2, DLPNO-MP2 Gradient                 
  Christoph Reimann      : Effective Core Potentials                     
  Marius Retegan         : Local ZFS, SOC                                
  Christoph Riplinger    : Optimizer, TS searches, QM/MM, DLPNO-CCSD(T), (RO)-DLPNO pert. Triples 
  Michael Roemelt        : Original ROCIS implementation                 
  Masaaki Saitow         : Open-shell DLPNO-CCSD energy and density      
  Barbara Sandhoefer     : DKH picture change effects                    
  Kantharuban Sivalingam : CASSCF convergence/infrastructure, NEVPT2 and variants, FIC-MRCI 
  Bernardo de Souza      : ESD, SOC TD-DFT                               
  Georgi L. Stoychev     : AutoAux, RI-MP2 NMR, DLPNO-MP2 response, X2C  
  Van Anh Tran           : RI-MP2 g-tensors                              
  Willem Van den Heuvel  : Paramagnetic NMR                              
  Zikuan Wang            : NOTCH, Electric field optimization            
  Frank Wennmohs         : Technical directorship and infrastructure     
  Hang Xu                : AUTO-CI-Response properties                   
                                                                         
[FACCTs GmbH]                                                            
  Markus Bursch, Miquel Garcia-Rates, Christoph Riplinger, Bernardo de Souza, Georgi L. Stoychev 
                                                                 
  APM, Basis sets (HGBS, AHGBS, def-TZVP (Ac-Lr), def2-XVPD (La-Lu)), CI-OPT, improved COSX, DLPNO-Multilevel,           
  DOCKER, DRACO, updates on ESD, GOAT, IRC, LR-CPCM, MBIS, meta-GGA TD-DFT gradient, ML-optimized integration grids, 
  MM, NACMEs, nearIR, NEB, NEB-TS, NL-DFT gradient (VV10), 2- and 3-layer-ONIOM, interface openCOSMO-RS, QMMM,   
  Crystal-QMMM, SF, symmetry and pop. for TD-DFT, r2SCAN hybrids, SOLVATOR                                   
                                                                         
[Other institutions]                                                     
  V. Asgeirsson          : NEB                                           
  Christoph Bannwarth    : sTDA-DFT, sTD-DFT, PBEh-3c, B97-3c, D3        
  Sebastian Ehlert       : rSCAN, r2SCAN, r2SCAN-3c, D4, dhf basis sets  
  Marvin Friede          : D4 for Fr, Ra, Ac-Lr                          
  Lars Goerigk           : TD-DFT with DH, B97 family of functionals     
  Stefan Grimme          : VdW corrections, initial TS optimization, DFT functionals, gCP, sTDA/sTD-DF 
  Waldemar Hujo          : DFT-NL                                        
  H. Jonsson             : NEB                                           
  Holger Kruse           : gCP                                           
  Marcel Mueller         : wB97X-3c, vDZP basis set                      
  Hagen Neugebauer       : wr2SCAN                                       
  Tobias Risthaus        : range-separated hybrid DFT                    
  Lukas Wittmann         : regularized MP2, r2SCAN double-hybrids, wr2SCAN        
                                                                         
We gratefully acknowledge several colleagues who have allowed us to      
interface, adapt or use parts of their codes:                            
  Ed Valeev, F. Pavosevic, A. Kumar             : LibInt (2-el integral package), F12 methods 
  Garnet Chan, S. Sharma, J. Yang, R. Olivares  : DMRG                   
  Ulf Ekstrom                                   : XCFun DFT Library      
  Mihaly Kallay                                 : mrcc  (arbitrary order and MRCC methods)
  Frank Weinhold                                : gennbo (NPA and NBO analysis)           
  Simon Mueller                                 : openCOSMO-RS                            
  Christopher J. Cramer and Donald G. Truhlar   : smd solvation model                     
  S Lehtola, MJT Oliveira, MAL Marques          : LibXC Library                           
  Liviu Ungur et al                             : ANISO software                          


 Your calculation uses the libint2 library for the computation of 2-el integrals
 For citations please refer to: http://libint.valeyev.net

 Your ORCA version has been built with support for libXC version: 6.2.2
 For citations please refer to: https://libxc.gitlab.io

 This ORCA versions uses:
   CBLAS   interface :  Fast vector & matrix operations
   LAPACKE interface :  Fast linear algebra routines
   SCALAPACK package :  Parallel linear algebra routines
   Shared memory     :  Shared parallel matrices
   BLAS/LAPACK       :  OpenBLAS 0.3.27  USE64BITINT DYNAMIC_ARCH NO_AFFINITY SkylakeX SINGLE_THREADED
        Core in use  :  SkylakeX
   Copyright (c) 2011-2014, The OpenBLAS Project


NOTE: MaxCore=5000 MB was set to SCF,MP2,MDCI,CIPSI,MRCI and CIS
      => If you want to overwrite this, your respective input block should be placed after the MaxCore statement
Your calculation utilizes the atom-pairwise dispersion correction
with the Becke-Johnson damping scheme (D3BJ)


Warning: RI is on but no J-basis has been assigned. Assigning Def2/J (nothing to worry about!)
================================================================================

----- Orbital basis set information -----
Your calculation utilizes the basis: 6-311++G(d,p)
   H, Li - Ne  : R. Krishnan, J. S. Binkley, R. Seeger and J. A. Pople, J. Chem. Phys. 72, 650 (1980).
   Na - Ar     : A. D. McLean and G. S. Chandler J. Chem. Phys. 72, 5639, (1980).
   K  - Ca     : J.-P. Blaudeau, M. P. McGrath, L. A. Curtiss and L. Radom, J. Chem. Phys. 107, 5016 (1997).
   Ga - Kr     : L. A. Curtiss, M. P. McGrath, J.-P. Blandeau, N. E. Davis, R. C. Binning and L. Radom, J. Chem. Phys. 103, 6104 (1995).
   Pol./Diff.
   H, Li - Cl  : T. Clark, J. Chandrasekhar and P. v. R. Schleyer, J. Comp. Chem. 4, 294 (1983).
   H - Ne      : M. J. Frisch, J. A. Pople and J. S. Binkley, J. Chem. Phys. 80, 3265 (1984).

----- AuxJ basis set information -----
Your calculation utilizes the auxiliary basis: def2/J
   F. Weigend, Phys. Chem. Chem. Phys. 8, 1057 (2006).

================================================================================
                                        WARNINGS
                       Please study these warnings very carefully!
================================================================================


WARNING: Geometry Optimization
  ===> : Switching off AutoStart
         For restart on a previous wavefunction, please use MOREAD

================================================================================
                                       INPUT FILE
================================================================================
NAME = input.inp
|  1> ! B3LYP D3BJ 6-311++G(d,p) Opt TightSCF RIJCOSX
|  2> 
|  3> %maxcore 5000
|  4> 
|  5> %pal
|  6> nprocs 32
|  7> end
|  8> 
|  9> * xyz 0 1
| 10>   F          -1.89301596075366      0.66597098726226     -0.69135489914406
| 11>   O           0.04939793642097      0.91722464588469      0.44009556496219
| 12>   O           0.55763946449402     -1.17045043524101     -0.15539764768855
| 13>   O           2.16087405551391      0.41999520751740     -0.21533050767150
| 14>   C          -1.17984673250564      0.25605579222863      0.41492408780719
| 15>   C          -0.80120895807472     -1.21593033369283      0.28833194020295
| 16>   C           1.04709495587539      0.08120316204617     -0.00956435859207
| 17>   H          -1.75876439456511      0.52791078852933      1.29500878121697
| 18>   H          -0.85040051995893     -1.73773395933129      1.24482497526557
| 19>   H          -1.40846984644623     -1.72524585520334     -0.45623793635869
| 20> *
| 21> 
| 22>                          ****END OF INPUT****
================================================================================

                       *****************************
                       * Geometry Optimization Run *
                       *****************************

Geometry optimization settings:
Update method            Update   .... BFGS
Choice of coordinates    CoordSys .... (2022) Redundant Internals
Initial Hessian          InHess   .... Almloef's Model
Max. no of cycles        MaxIter  .... 50

Convergence Tolerances:
Energy Change            TolE     ....  5.0000e-06 Eh
Max. Gradient            TolMAXG  ....  3.0000e-04 Eh/bohr
RMS Gradient             TolRMSG  ....  1.0000e-04 Eh/bohr
Max. Displacement        TolMAXD  ....  4.0000e-03 bohr
RMS Displacement         TolRMSD  ....  2.0000e-03 bohr
Strict Convergence                .... False

------------------------------------------------------------------------------
                        ORCA OPTIMIZATION COORDINATE SETUP
------------------------------------------------------------------------------

The optimization will be done in redundant internal coordinates (2022)
Making redundant internal coordinates   ...  (2022 redundants) done
Evaluating the initial hessian          ...  (Almloef) done
Evaluating the coordinates              ...  done
Calculating the B-matrix                .... done
Calculating the G-matrix                .... done
Diagonalizing the G-matrix              .... done
The first mode is                       ....   19
The number of degrees of freedom        ....   24

    -----------------------------------------------------------------
                    Redundant Internal Coordinates


    -----------------------------------------------------------------
         Definition                    Initial Value    Approx d2E/dq
    -----------------------------------------------------------------
      1. B(C   4,O   1)                  1.3960         0.547394   
      2. B(C   4,F   0)                  1.3786         0.542226   
      3. B(C   5,O   2)                  1.4302         0.482792   
      4. B(C   5,C   4)                  1.5252         0.380266   
      5. B(C   6,O   2)                  1.3518         0.643810   
      6. B(C   6,O   3)                  1.1822         1.200574   
      7. B(C   6,O   1)                  1.3771         0.586660   
      8. B(H   7,C   4)                  1.0879         0.362844   
      9. B(H   8,C   5)                  1.0907         0.359205   
     10. B(H   9,C   5)                  1.0875         0.363486   
     11. A(C   4,O   1,C   6)          110.1527         0.414874   
     12. A(C   5,O   2,C   6)          109.8756         0.412476   
     13. A(F   0,C   4,O   1)          109.2182         0.407328   
     14. A(F   0,C   4,H   7)          107.4325         0.341932   
     15. A(O   1,C   4,C   5)          103.8862         0.386864   
     16. A(O   1,C   4,H   7)          109.6107         0.343899   
     17. A(C   5,C   4,H   7)          116.1306         0.325673   
     18. A(F   0,C   4,C   5)          110.4139         0.384566   
     19. A(C   4,C   5,H   8)          112.1945         0.325133   
     20. A(O   2,C   5,H   8)          109.2782         0.336192   
     21. A(C   4,C   5,H   9)          111.7293         0.325767   
     22. A(O   2,C   5,C   4)          103.3523         0.378517   
     23. A(H   8,C   5,H   9)          110.5606         0.291154   
     24. A(O   2,C   5,H   9)          109.4529         0.336855   
     25. A(O   1,C   6,O   2)          109.5724         0.427062   
     26. A(O   2,C   6,O   3)          125.9917         0.486546   
     27. A(O   1,C   6,O   3)          124.4296         0.478270   
     28. D(F   0,C   4,O   1,C   6)   -101.7067         0.023870   
     29. D(C   5,C   4,O   1,C   6)     16.1126         0.023870   
     30. D(H   7,C   4,O   1,C   6)    140.8417         0.023870   
     31. D(H   8,C   5,C   4,H   7)    -20.1793         0.011524   
     32. D(H   9,C   5,O   2,C   6)    132.2720         0.018392   
     33. D(O   2,C   5,C   4,F   0)     99.6295         0.011524   
     34. D(H   8,C   5,O   2,C   6)   -106.5218         0.018392   
     35. D(O   2,C   5,C   4,H   7)   -137.7807         0.011524   
     36. D(H   8,C   5,C   4,F   0)   -142.7691         0.011524   
     37. D(H   8,C   5,C   4,O   1)    100.2427         0.011524   
     38. D(O   2,C   5,C   4,O   1)    -17.3586         0.011524   
     39. D(C   4,C   5,O   2,C   6)     13.1038         0.018392   
     40. D(O   1,C   6,O   2,C   5)     -3.7232         0.030585   
     41. D(O   3,C   6,O   1,C   4)    172.3172         0.025065   
     42. D(O   2,C   6,O   1,C   4)     -8.5556         0.025065   
     43. D(O   3,C   6,O   2,C   5)    175.3871         0.030585   
    -----------------------------------------------------------------

Number of atoms                         .... 10
Number of degrees of freedom            .... 43


         *************************************************************
         *                GEOMETRY OPTIMIZATION CYCLE   1            *
         *************************************************************
---------------------------------
CARTESIAN COORDINATES (ANGSTROEM)
---------------------------------
  F     -1.893016    0.665971   -0.691355
  O      0.049398    0.917225    0.440096
  O      0.557639   -1.170450   -0.155398
  O      2.160874    0.419995   -0.215331
  C     -1.179847    0.256056    0.414924
  C     -0.801209   -1.215930    0.288332
  C      1.047095    0.081203   -0.009564
  H     -1.758764    0.527911    1.295009
  H     -0.850401   -1.737734    1.244825
  H     -1.408470   -1.725246   -0.456238

----------------------------
CARTESIAN COORDINATES (A.U.)
----------------------------
  NO LB      ZA    FRAG     MASS         X           Y           Z
   0 F     9.0000    0    18.998   -3.577282    1.258503   -1.306471
   1 O     8.0000    0    15.999    0.093349    1.733303    0.831660
   2 O     8.0000    0    15.999    1.053786   -2.211831   -0.293659
   3 O     8.0000    0    15.999    4.083460    0.793676   -0.406916
   4 C     6.0000    0    12.011   -2.229587    0.483875    0.784093
   5 C     6.0000    0    12.011   -1.514066   -2.297775    0.544868
   6 C     6.0000    0    12.011    1.978723    0.153452   -0.018074
   7 H     1.0000    0     1.008   -3.323583    0.997607    2.447212
   8 H     1.0000    0     1.008   -1.607024   -3.283841    2.352378
   9 H     1.0000    0     1.008   -2.661622   -3.260242   -0.862165

--------------------------------
INTERNAL COORDINATES (ANGSTROEM)
--------------------------------
 F      0   0   0     0.000000000000     0.00000000     0.00000000
 O      1   0   0     2.261919605476     0.00000000     0.00000000
 O      2   1   0     2.229643213952    87.60112248     0.00000000
 O      3   2   1     2.259086196699    60.63716509   138.66695916
 C      1   2   3     1.378584060625    35.64641919    68.22269604
 C      3   2   1     1.430186492682    74.35558001   314.59875749
 C      4   3   2     1.182211335157    28.95794804   359.40592370
 H      5   1   2     1.087933759947   107.43249579   118.81646341
 H      6   3   2     1.090677660729   109.27818444   251.22913880
 H      6   3   2     1.087452246345   109.45291890   130.02287463

---------------------------
INTERNAL COORDINATES (A.U.)
---------------------------
 F      0   0   0     0.000000000000     0.00000000     0.00000000
 O      1   0   0     4.274408591296     0.00000000     0.00000000
 O      2   1   0     4.213415050726    87.60112248     0.00000000
 O      3   2   1     4.269054224684    60.63716509   138.66695916
 C      1   2   3     2.605146327170    35.64641919    68.22269604
 C      3   2   1     2.702660791603    74.35558001   314.59875749
 C      4   3   2     2.234055655864    28.95794804   359.40592370
 H      5   1   2     2.055896858147   107.43249579   118.81646341
 H      6   3   2     2.061082079164   109.27818444   251.22913880
 H      6   3   2     2.054986929309   109.45291890   130.02287463

---------------------
BASIS SET INFORMATION
---------------------
There are 4 groups of distinct atoms

 Group   1 Type F   : 12s6p1d contracted to 5s4p1d pattern {63111/3111/1}
 Group   2 Type O   : 12s6p1d contracted to 5s4p1d pattern {63111/3111/1}
 Group   3 Type C   : 12s6p1d contracted to 5s4p1d pattern {63111/3111/1}
 Group   4 Type H   : 6s1p contracted to 4s1p pattern {3111/1}

Atom   0F    basis set group =>   1
Atom   1O    basis set group =>   2
Atom   2O    basis set group =>   2
Atom   3O    basis set group =>   2
Atom   4C    basis set group =>   3
Atom   5C    basis set group =>   3
Atom   6C    basis set group =>   3
Atom   7H    basis set group =>   4
Atom   8H    basis set group =>   4
Atom   9H    basis set group =>   4
---------------------------------
AUXILIARY/J BASIS SET INFORMATION
---------------------------------
There are 4 groups of distinct atoms

 Group   1 Type F   : 12s5p4d2f1g contracted to 6s4p3d1f1g pattern {711111/2111/211/2/1}
 Group   2 Type O   : 12s5p4d2f1g contracted to 6s4p3d1f1g pattern {711111/2111/211/2/1}
 Group   3 Type C   : 12s5p4d2f1g contracted to 6s4p3d1f1g pattern {711111/2111/211/2/1}
 Group   4 Type H   : 5s2p1d contracted to 3s1p1d pattern {311/2/1}

Atom   0F    basis set group =>   1
Atom   1O    basis set group =>   2
Atom   2O    basis set group =>   2
Atom   3O    basis set group =>   2
Atom   4C    basis set group =>   3
Atom   5C    basis set group =>   3
Atom   6C    basis set group =>   3
Atom   7H    basis set group =>   4
Atom   8H    basis set group =>   4
Atom   9H    basis set group =>   4
--------------------------------------------------------------------------
WARNING: There was an error initializing an OpenFabrics device.

  Local host:   ga00
  Local device: mlx5_0
--------------------------------------------------------------------------


           ************************************************************
           *        Program running with 32 parallel MPI-processes    *
           *              working on a common directory               *
           ************************************************************
------------------------------------------------------------------------------
                             ORCA STARTUP CALCULATIONS
                           -- RI-GTO INTEGRALS CHOSEN --
------------------------------------------------------------------------------
------------------------------------------------------------------------------
                   ___                                                        
                  /   \      - P O W E R E D   B Y -                         
                 /     \                                                     
                 |  |  |   _    _      __       _____    __    __             
                 |  |  |  | |  | |    /  \     |  _  \  |  |  /  |          
                  \  \/   | |  | |   /    \    | | | |  |  | /  /          
                 / \  \   | |__| |  /  /\  \   | |_| |  |  |/  /          
                |  |  |   |  __  | /  /__\  \  |    /   |      \           
                |  |  |   | |  | | |   __   |  |    \   |  |\   \          
                \     /   | |  | | |  |  |  |  | |\  \  |  | \   \       
                 \___/    |_|  |_| |__|  |__|  |_| \__\ |__|  \__/        
                                                                              
                      - O R C A' S   B I G   F R I E N D -                    
                                      &                                       
                       - I N T E G R A L  F E E D E R -                       
                                                                              
 v1 FN, 2020, v2 2021, v3 2022-2024                                           
------------------------------------------------------------------------------


----------------------
SHARK INTEGRAL PACKAGE
----------------------

Number of atoms                             ...     10
Number of basis functions                   ...    175
Number of shells                            ...     85
Maximum angular momentum                    ...      2
Integral batch strategy                     ... SHARK/LIBINT Hybrid
RI-J (if used) integral strategy            ... SPLIT-RIJ (Revised 2003 algorithm where possible)
Printlevel                                  ...      1
Contraction scheme used                     ... SEGMENTED contraction
Prescreening option                         ... SCHWARTZ
   Thresh                                   ... 2.500e-11
   Tcut                                     ... 2.500e-12
   Tpresel                                  ... 2.500e-12 
Coulomb Range Separation                    ... NOT USED
Exchange Range Separation                   ... NOT USED
Multipole approximations                    ... NOT USED
Finite Nucleus Model                        ... NOT USED
CABS basis                                  ... NOT available
Auxiliary Coulomb fitting basis             ... AVAILABLE
   # of basis functions in Aux-J            ...    376
   # of shells in Aux-J                     ...    120
   Maximum angular momentum in Aux-J        ...      4
Auxiliary J/K fitting basis                 ... NOT available
Auxiliary Correlation fitting basis         ... NOT available
Auxiliary 'external' fitting basis          ... NOT available

Checking pre-screening integrals            ... done (  0.0 sec) Dimension = 85
Check shell pair data                       ... done (  0.0 sec)
Shell pair information
Shell pair cut-off parameter TPreSel        ...   2.5e-12
Total number of shell pairs                 ...      3655
Shell pairs after pre-screening             ...      3476
Total number of primitive shell pairs       ...     12091
Primitive shell pairs kept                  ...      8826
          la=0 lb=0:   1050 shell pairs
          la=1 lb=0:   1392 shell pairs
          la=1 lb=1:    486 shell pairs
          la=2 lb=0:    310 shell pairs
          la=2 lb=1:    211 shell pairs
          la=2 lb=2:     27 shell pairs

Calculating one electron integrals          ... done (  0.0 sec)
Calculating RI/J V-Matrix + Cholesky decomp.... done (  0.0 sec)
Calculating Nuclear repulsion               ... done (  0.0 sec) ENN=    322.411672707861 Eh

Diagonalization of the overlap matrix:
Smallest eigenvalue                        ... 7.181e-05
Time for diagonalization                   ...    0.002 sec
Threshold for overlap eigenvalues          ... 1.000e-07
Number of eigenvalues below threshold      ... 0
Time for construction of square roots      ...    0.002 sec
Total time needed                          ...    0.005 sec

-------------------
DFT GRID GENERATION
-------------------

General Integration Accuracy     IntAcc      ... 4.388
Radial Grid Type                 RadialGrid  ... OptM3 with GC (2021)
Angular Grid (max. ang.)         AngularGrid ... 4 (Lebedev-302)
Angular grid pruning method      GridPruning ... 4 (adaptive)
Weight generation scheme         WeightScheme... mBecke (2022)
Basis function cutoff            BFCut       ... 1.0000e-11
Integration weight cutoff        WCut        ... 1.0000e-14
Partially contracted basis set               ... off
Rotationally invariant grid construction     ... off
Angular grids for H and He will be reduced by one unit
Diffuse basis detected: some atoms will have their outermost
                        angular grid increased by 1.

Total number of grid points                  ...    54820
Total number of batches                      ...      861
Average number of points per batch           ...       63
Average number of grid points per atom       ...     5482

--------------------
COSX GRID GENERATION
--------------------

GRIDX 1
-------
General Integration Accuracy     IntAcc      ... 3.816
Radial Grid Type                 RadialGrid  ... OptM3 with GC (2021)
Angular Grid (max. ang.)         AngularGrid ... 1 (Lebedev-50)
Angular grid pruning method      GridPruning ... 4 (adaptive)
Weight generation scheme         WeightScheme... mBecke (2022)
Basis function cutoff            BFCut       ... 1.0000e-11
Integration weight cutoff        WCut        ... 1.0000e-14
Partially contracted basis set               ... on
Rotationally invariant grid construction     ... off
Angular grids for H and He will be reduced by one unit
Diffuse basis detected: some atoms will have their outermost
                        angular grid increased by 1.

Total number of grid points                  ...     6921
Total number of batches                      ...       61
Average number of points per batch           ...      113
Average number of grid points per atom       ...      692
UseSFitting                                  ... on

GRIDX 2
-------
General Integration Accuracy     IntAcc      ... 4.020
Radial Grid Type                 RadialGrid  ... OptM3 with GC (2021)
Angular Grid (max. ang.)         AngularGrid ... 2 (Lebedev-110)
Angular grid pruning method      GridPruning ... 4 (adaptive)
Weight generation scheme         WeightScheme... mBecke (2022)
Basis function cutoff            BFCut       ... 1.0000e-11
Integration weight cutoff        WCut        ... 1.0000e-14
Partially contracted basis set               ... on
Rotationally invariant grid construction     ... off
Angular grids for H and He will be reduced by one unit
Diffuse basis detected: some atoms will have their outermost
                        angular grid increased by 1.

Total number of grid points                  ...    17865
Total number of batches                      ...      145
Average number of points per batch           ...      123
Average number of grid points per atom       ...     1786
UseSFitting                                  ... on

GRIDX 3
-------
General Integration Accuracy     IntAcc      ... 4.338
Radial Grid Type                 RadialGrid  ... OptM3 with GC (2021)
Angular Grid (max. ang.)         AngularGrid ... 3 (Lebedev-194)
Angular grid pruning method      GridPruning ... 4 (adaptive)
Weight generation scheme         WeightScheme... mBecke (2022)
Basis function cutoff            BFCut       ... 1.0000e-11
Integration weight cutoff        WCut        ... 1.0000e-14
Partially contracted basis set               ... on
Rotationally invariant grid construction     ... off
Angular grids for H and He will be reduced by one unit
Diffuse basis detected: some atoms will have their outermost
                        angular grid increased by 1.

Total number of grid points                  ...    39185
Total number of batches                      ...      312
Average number of points per batch           ...      125
Average number of grid points per atom       ...     3918
UseSFitting                                  ... on
Initializing property integral containers    ... done (  0.0 sec)

SHARK setup successfully completed in   0.5 seconds

Maximum memory used throughout the entire STARTUP-calculation: 17.3 MB
[ga00:175040] 31 more processes have sent help message help-mpi-btl-openib.txt / error in device init
[ga00:175040] Set MCA parameter "orte_base_help_aggregate" to 0 to see all help / error messages
--------------------------------------------------------------------------
WARNING: There was an error initializing an OpenFabrics device.

  Local host:   ga00
  Local device: mlx5_0
--------------------------------------------------------------------------


           ************************************************************
           *        Program running with 32 parallel MPI-processes    *
           *              working on a common directory               *
           ************************************************************
-------------------------------------------------------------------------------
                                 ORCA GUESS
                   Start orbitals & Density for SCF / CASSCF
-------------------------------------------------------------------------------

------------
SCF SETTINGS
------------
Hamiltonian:
 Density Functional     Method          .... DFT(GTOs)
 Exchange Functional    Exchange        .... B88
   X-Alpha parameter    XAlpha          ....  0.666667
   Becke's b parameter  XBeta           ....  0.004200
 Correlation Functional Correlation     .... LYP
 LDA part of GGA corr.  LDAOpt          .... VWN-5
 Gradients option       PostSCFGGA      .... off
 Hybrid DFT is turned on
   Fraction HF Exchange ScalHFX         ....  0.200000
   Scaling of DF-GGA-X  ScalDFX         ....  0.720000
   Scaling of DF-GGA-C  ScalDFC         ....  0.810000
   Scaling of DF-LDA-C  ScalLDAC        ....  1.000000
   Perturbative correction              ....  0.000000
   NL short-range parameter             ....  4.800000
 RI-approximation to the Coulomb term is turned on
   Number of AuxJ basis functions       .... 376
   RIJ-COSX (HFX calculated with COS-X)).... on


General Settings:
 Integral files         IntName         .... input
 Hartree-Fock type      HFTyp           .... RHF
 Total Charge           Charge          ....    0
 Multiplicity           Mult            ....    1
 Number of Electrons    NEL             ....   54
 Basis Dimension        Dim             ....  175
 Nuclear Repulsion      ENuc            ....    322.4116727079 Eh

Convergence Acceleration:
 AO-DIIS                CNVDIIS         .... on
   Start iteration      DIISMaxIt       ....    12
   Startup error        DIISStart       ....  0.200000
   # of expansion vecs  DIISMaxEq       ....     5
   Bias factor          DIISBfac        ....   1.050
   Max. coefficient     DIISMaxC        ....  10.000
 MO-DIIS                CNVKDIIS        .... off
 Trust-Rad. Augm. Hess. CNVTRAH         .... auto
   Auto Start mean grad. ratio tolernc. ....  1.125000
   Auto Start start iteration           ....    50
   Auto Start num. interpolation iter.  ....    10
   Max. Number of Micro iterations      ....    24
   Max. Number of Macro iterations      .... Maxiter - #DIIS iter
   Number of Davidson start vectors     ....     2
   Converg. threshold    (grad. norm)   ....   1.000e-05
   Grad. Scal. Fac. for Micro threshold ....   0.100
   Minimum threshold for Micro iter.    ....   1.000e-02
   NR start threshold (gradient norm)   ....   1.000e-04
   Initial trust radius                 ....   0.400
   Minimum AH scaling param. (alpha)    ....   1.000
   Maximum AH scaling param. (alpha)    .... 1000.000
   Quad. conv. algorithm                .... NR
   White noise on init. David. guess    .... on
   Maximum white noise                  ....   0.010
   Pseudo random numbers                .... off
   Inactive MOs                         .... canonical
   Orbital update algorithm             .... Taylor
   Preconditioner                       .... Diag
   Full preconditioner red. dimension   ....   250
 SOSCF                  CNVSOSCF        .... on
   Start iteration      SOSCFMaxIt      ....   150
   Startup grad/error   SOSCFStart      ....  0.003300
   Hessian update       SOSCFHessUp     .... L-BFGS
 Level Shifting         CNVShift        .... on
   Level shift para.    LevelShift      ....    0.2500
   Turn off err/grad.   ShiftErr        ....    0.0010
 Zerner damping         CNVZerner       .... off
 Static damping         CNVDamp         .... on
   Fraction old density DampFac         ....    0.7000
   Max. Damping (<1)    DampMax         ....    0.9800
   Min. Damping (>=0)   DampMin         ....    0.0000
   Turn off err/grad.   DampErr         ....    0.1000

SCF Procedure:
 Maximum # iterations   MaxIter         ....   125
 SCF integral mode      SCFMode         .... Direct
   Integral package                     .... SHARK and LIBINT hybrid scheme
 Reset frequency        DirectResetFreq ....    20
 Integral Threshold     Thresh          ....  2.500e-11 Eh
 Primitive CutOff       TCut            ....  2.500e-12 Eh

Convergence Tolerance:
 Convergence Check Mode ConvCheckMode   .... Total+1el-Energy
 Convergence forced     ConvForced      .... 0
 Energy Change          TolE            ....  1.000e-08 Eh
 1-El. energy change                    ....  1.000e-05 Eh
 Orbital Gradient       TolG            ....  1.000e-05
 Orbital Rotation angle TolX            ....  1.000e-05
 DIIS Error             TolErr          ....  5.000e-07

------------------------------
INITIAL GUESS: MODEL POTENTIAL
------------------------------
Loading Hartree-Fock densities                     ... done
Calculating cut-offs                               ... done
Initializing the effective Hamiltonian             ... done
Setting up the integral package (SHARK)            ... done
Starting the Coulomb interaction                   ... done (   0.0 sec)
Making the grid                                    ... done (   0.1 sec)
Mapping shells                                     ... done
Starting the XC term evaluation                    ... done (   0.0 sec)
  promolecular density results
     # of electrons  =     53.998217222
     EX              =    -50.996712453
     EC              =     -1.942386056
     EX+EC           =    -52.939098509
Transforming the Hamiltonian                       ... done (   0.0 sec)
Diagonalizing the Hamiltonian                      ... done (   0.0 sec)
Back transforming the eigenvectors                 ... done (   0.0 sec)
Now organizing SCF variables                       ... done
                      ------------------
                      INITIAL GUESS DONE (   0.1 sec)
                      ------------------
             **** ENERGY FILE WAS UPDATED (input.en.tmp) ****
Finished Guess after   0.9 sec
Maximum memory used throughout the entire GUESS-calculation: 11.4 MB
[ga00:175189] 31 more processes have sent help message help-mpi-btl-openib.txt / error in device init
[ga00:175189] Set MCA parameter "orte_base_help_aggregate" to 0 to see all help / error messages
--------------------------------------------------------------------------
WARNING: There was an error initializing an OpenFabrics device.

  Local host:   ga00
  Local device: mlx5_0
--------------------------------------------------------------------------


           ************************************************************
           *        Program running with 32 parallel MPI-processes    *
           *              working on a common directory               *
           ************************************************************

-------------------------------------------------------------------------------------------
                                      ORCA LEAN-SCF
                              memory conserving SCF solver
-------------------------------------------------------------------------------------------

----------------------------------------D-I-I-S--------------------------------------------
Iteration    Energy (Eh)           Delta-E    RMSDP     MaxDP     DIISErr   Damp  Time(sec)
-------------------------------------------------------------------------------------------
               ***  Starting incremental Fock matrix formation  ***
    1    -441.3676134087137370     0.00e+00  3.52e-03  7.77e-02  3.42e-01  0.700   0.2
    2    -441.4713011453198988    -1.04e-01  2.10e-03  3.29e-02  1.18e-01  0.700   0.1
                               ***Turning on AO-DIIS***
    3    -441.5029220636496348    -3.16e-02  6.77e-04  1.41e-02  3.32e-02  0.700   0.1
    4    -441.5251391841017039    -2.22e-02  1.06e-03  2.03e-02  1.50e-02  0.000   0.1
    5    -441.5767770070868892    -5.16e-02  2.48e-04  5.12e-03  4.94e-03  0.000   0.1
                              *** Initializing SOSCF ***
---------------------------------------S-O-S-C-F--------------------------------------
Iteration    Energy (Eh)           Delta-E    RMSDP     MaxDP     MaxGrad    Time(sec)
--------------------------------------------------------------------------------------
    6    -441.5769087713518957    -1.32e-04  8.22e-05  1.31e-03  2.38e-03     0.1
               *** Restarting incremental Fock matrix formation ***
    7    -441.5769365313738035    -2.78e-05  6.18e-05  1.28e-03  3.48e-04     0.2
    8    -441.5769325495385829     3.98e-06  2.87e-05  5.43e-04  5.71e-04     0.2
    9    -441.5769393582751263    -6.81e-06  1.26e-05  2.35e-04  7.22e-05     0.2
   10    -441.5769391231456211     2.35e-07  7.31e-06  1.46e-04  1.19e-04     0.2
   11    -441.5769394685110001    -3.45e-07  6.66e-07  2.26e-05  3.00e-06     0.1
   12    -441.5769394689880301    -4.77e-10  5.45e-07  2.38e-05  2.55e-06     0.1
                 **** Energy Check signals convergence ****

               *****************************************************
               *                     SUCCESS                       *
               *           SCF CONVERGED AFTER  12 CYCLES          *
               *****************************************************

Recomputing exchange energy using gridx3       ... done (    0.185 sec)
Old exchange energy                            :    -10.277950211 Eh
New exchange energy                            :    -10.277978956 Eh
Exchange energy change after final integration :     -0.000028745 Eh
Total energy after final integration           :   -441.576968214 Eh
             **** ENERGY FILE WAS UPDATED (input.en.tmp) ****

----------------
TOTAL SCF ENERGY
----------------

Total Energy       :       -441.57696821378005 Eh          -12015.92018 eV

Components:
Nuclear Repulsion  :        322.41167270786116 Eh            8773.26764 eV
Electronic Energy  :       -763.98861217684919 Eh          -20789.18704 eV
One Electron Energy:      -1245.13966285333345 Eh          -33881.97275 eV
Two Electron Energy:        481.15105067648426 Eh           13092.78571 eV

Virial components:
Potential Energy   :       -882.02825104977228 Eh          -24001.20891 eV
Kinetic Energy     :        440.45128283599217 Eh           11985.28873 eV
Virial Ratio       :          2.00255575456732

DFT components:
N(Alpha)           :       26.999934560214 electrons
N(Beta)            :       26.999934560214 electrons
N(Total)           :       53.999869120428 electrons
E(X)               :      -40.957944787257 Eh       
E(C)               :       -2.279187996507 Eh       
E(XC)              :      -43.237132783765 Eh       

---------------
SCF CONVERGENCE
---------------

  Last Energy change         ...    4.7703e-10  Tolerance :   1.0000e-08
  Last MAX-Density change    ...    2.3778e-05  Tolerance :   1.0000e-07
  Last RMS-Density change    ...    5.4503e-07  Tolerance :   5.0000e-09
  Last DIIS Error            ...    2.3826e-03  Tolerance :   5.0000e-07
  Last Orbital Gradient      ...    2.5452e-06  Tolerance :   1.0000e-05
  Last Orbital Rotation      ...    1.4813e-06  Tolerance :   1.0000e-05


----------------
ORBITAL ENERGIES
----------------

  NO   OCC          E(Eh)            E(eV) 
   0   2.0000     -24.704864      -672.2535 
   1   2.0000     -19.210088      -522.7331 
   2   2.0000     -19.207169      -522.6536 
   3   2.0000     -19.135337      -520.6990 
   4   2.0000     -10.370203      -282.1876 
   5   2.0000     -10.349209      -281.6163 
   6   2.0000     -10.276876      -279.6480 
   7   2.0000      -1.253299       -34.1040 
   8   2.0000      -1.187607       -32.3164 
   9   2.0000      -1.082219       -29.4487 
  10   2.0000      -1.074644       -29.2426 
  11   2.0000      -0.809601       -22.0304 
  12   2.0000      -0.712306       -19.3828 
  13   2.0000      -0.651695       -17.7335 
  14   2.0000      -0.589972       -16.0539 
  15   2.0000      -0.578708       -15.7475 
  16   2.0000      -0.543835       -14.7985 
  17   2.0000      -0.513345       -13.9688 
  18   2.0000      -0.489930       -13.3317 
  19   2.0000      -0.472913       -12.8686 
  20   2.0000      -0.453824       -12.3492 
  21   2.0000      -0.427695       -11.6382 
  22   2.0000      -0.409452       -11.1418 
  23   2.0000      -0.385844       -10.4993 
  24   2.0000      -0.367512       -10.0005 
  25   2.0000      -0.337726        -9.1900 
  26   2.0000      -0.325885        -8.8678 
  27   0.0000      -0.020611        -0.5608 
  28   0.0000      -0.000232        -0.0063 
  29   0.0000       0.006795         0.1849 
  30   0.0000       0.008926         0.2429 
  31   0.0000       0.019891         0.5412 
  32   0.0000       0.043248         1.1768 
  33   0.0000       0.056309         1.5322 
  34   0.0000       0.070770         1.9257 
  35   0.0000       0.072932         1.9846 
  36   0.0000       0.081507         2.2179 
  37   0.0000       0.098516         2.6808 
*Only the first 10 virtual orbitals were printed.

                    ********************************
                    * MULLIKEN POPULATION ANALYSIS *
                    ********************************

-----------------------
MULLIKEN ATOMIC CHARGES
-----------------------
   0 F :   -0.134472
   1 O :   -0.111814
   2 O :   -0.117828
   3 O :   -0.308580
   4 C :   -0.042669
   5 C :   -0.235553
   6 C :    0.332235
   7 H :    0.220952
   8 H :    0.181823
   9 H :    0.215907
Sum of atomic charges:   -0.0000000

--------------------------------
MULLIKEN REDUCED ORBITAL CHARGES
--------------------------------
  0 F s       :     3.907663  s :     3.907663
      pz      :     1.573684  p :     5.222116
      px      :     1.776606
      py      :     1.871826
      dz2     :     0.001269  d :     0.004693
      dxz     :     0.001634
      dyz     :     0.000934
      dx2y2   :     0.000382
      dxy     :     0.000474

  1 O s       :     3.748240  s :     3.748240
      pz      :     1.676294  p :     4.347899
      px      :     1.149233
      py      :     1.522372
      dz2     :     0.002153  d :     0.015675
      dxz     :     0.001930
      dyz     :     0.002546
      dx2y2   :     0.002287
      dxy     :     0.006758

  2 O s       :     3.767490  s :     3.767490
      pz      :     1.671044  p :     4.334507
      px      :     1.292572
      py      :     1.370891
      dz2     :     0.002109  d :     0.015831
      dxz     :     0.002299
      dyz     :     0.002517
      dx2y2   :     0.005973
      dxy     :     0.002933

  3 O s       :     3.936399  s :     3.936399
      pz      :     1.413236  p :     4.353094
      px      :     1.269609
      py      :     1.670250
      dz2     :     0.002345  d :     0.019086
      dxz     :     0.005228
      dyz     :     0.000666
      dx2y2   :     0.005981
      dxy     :     0.004865

  4 C s       :     3.235549  s :     3.235549
      pz      :     0.922771  p :     2.638959
      px      :     0.822762
      py      :     0.893425
      dz2     :     0.034484  d :     0.168162
      dxz     :     0.046422
      dyz     :     0.022732
      dx2y2   :     0.033328
      dxy     :     0.031195

  5 C s       :     3.277169  s :     3.277169
      pz      :     1.157936  p :     2.870421
      px      :     0.757852
      py      :     0.954633
      dz2     :     0.015320  d :     0.087963
      dxz     :     0.021458
      dyz     :     0.010693
      dx2y2   :     0.024367
      dxy     :     0.016126

  6 C s       :     2.983390  s :     2.983390
      pz      :     0.860040  p :     2.424057
      px      :     0.784465
      py      :     0.779552
      dz2     :     0.017800  d :     0.260318
      dxz     :     0.050905
      dyz     :     0.030118
      dx2y2   :     0.067409
      dxy     :     0.094086

  7 H s       :     0.758943  s :     0.758943
      pz      :     0.010562  p :     0.020105
      px      :     0.005407
      py      :     0.004136

  8 H s       :     0.796816  s :     0.796816
      pz      :     0.011860  p :     0.021361
      px      :     0.002458
      py      :     0.007043

  9 H s       :     0.762083  s :     0.762083
      pz      :     0.008972  p :     0.022011
      px      :     0.006144
      py      :     0.006895



                     *******************************
                     * LOEWDIN POPULATION ANALYSIS *
                     *******************************

----------------------
LOEWDIN ATOMIC CHARGES
----------------------
   0 F :   -0.143248
   1 O :   -0.064803
   2 O :   -0.086556
   3 O :   -0.093575
   4 C :    0.106361
   5 C :    0.073154
   6 C :   -0.002374
   7 H :    0.071887
   8 H :    0.064490
   9 H :    0.074665

-------------------------------
LOEWDIN REDUCED ORBITAL CHARGES
-------------------------------
  0 F s       :     3.734937  s :     3.734937
      pz      :     1.690486  p :     5.401739
      px      :     1.816644
      py      :     1.894609
      dz2     :     0.001794  d :     0.006573
      dxz     :     0.002394
      dyz     :     0.001296
      dx2y2   :     0.000452
      dxy     :     0.000637

  1 O s       :     3.418433  s :     3.418433
      pz      :     1.697518  p :     4.620514
      px      :     1.306371
      py      :     1.616625
      dz2     :     0.003360  d :     0.025857
      dxz     :     0.003590
      dyz     :     0.002913
      dx2y2   :     0.003929
      dxy     :     0.012064

  2 O s       :     3.421493  s :     3.421493
      pz      :     1.720012  p :     4.639229
      px      :     1.416876
      py      :     1.502341
      dz2     :     0.003422  d :     0.025834
      dxz     :     0.003695
      dyz     :     0.002926
      dx2y2   :     0.010445
      dxy     :     0.005346

  3 O s       :     3.480656  s :     3.480656
      pz      :     1.430381  p :     4.585563
      px      :     1.485339
      py      :     1.669842
      dz2     :     0.003929  d :     0.027356
      dxz     :     0.006121
      dyz     :     0.000762
      dx2y2   :     0.009785
      dxy     :     0.006759

  4 C s       :     2.750757  s :     2.750757
      pz      :     0.906529  p :     2.798860
      px      :     0.884218
      py      :     1.008113
      dz2     :     0.071847  d :     0.344023
      dxz     :     0.094576
      dyz     :     0.041134
      dx2y2   :     0.069080
      dxy     :     0.067386

  5 C s       :     2.766615  s :     2.766615
      pz      :     1.067865  p :     2.972852
      px      :     0.851781
      py      :     1.053206
      dz2     :     0.030601  d :     0.187380
      dxz     :     0.043864
      dyz     :     0.023515
      dx2y2   :     0.056770
      dxy     :     0.032629

  6 C s       :     2.713470  s :     2.713470
      pz      :     0.816639  p :     2.753842
      px      :     1.025764
      py      :     0.911438
      dz2     :     0.044258  d :     0.535062
      dxz     :     0.096270
      dyz     :     0.059112
      dx2y2   :     0.143060
      dxy     :     0.192363

  7 H s       :     0.861457  s :     0.861457
      pz      :     0.033894  p :     0.066655
      px      :     0.018771
      py      :     0.013989

  8 H s       :     0.866572  s :     0.866572
      pz      :     0.038393  p :     0.068938
      px      :     0.009065
      py      :     0.021481

  9 H s       :     0.856587  s :     0.856587
      pz      :     0.029331  p :     0.068747
      px      :     0.019273
      py      :     0.020144



                      *****************************
                      * MAYER POPULATION ANALYSIS *
                      *****************************

  NA   - Mulliken gross atomic population
  ZA   - Total nuclear charge
  QA   - Mulliken gross atomic charge
  VA   - Mayer's total valence
  BVA  - Mayer's bonded valence
  FA   - Mayer's free valence

  ATOM       NA         ZA         QA         VA         BVA        FA
  0 F      9.1345     9.0000    -0.1345     0.9522     0.9522    -0.0000
  1 O      8.1118     8.0000    -0.1118     1.9367     1.9367    -0.0000
  2 O      8.1178     8.0000    -0.1178     1.9074     1.9074    -0.0000
  3 O      8.3086     8.0000    -0.3086     2.0690     2.0690    -0.0000
  4 C      6.0427     6.0000    -0.0427     4.0363     4.0363    -0.0000
  5 C      6.2356     6.0000    -0.2356     3.6288     3.6288    -0.0000
  6 C      5.6678     6.0000     0.3322     4.1525     4.1525    -0.0000
  7 H      0.7790     1.0000     0.2210     0.8790     0.8790    -0.0000
  8 H      0.8182     1.0000     0.1818     0.9243     0.9243    -0.0000
  9 H      0.7841     1.0000     0.2159     0.8801     0.8801    -0.0000

  Mayer bond orders larger than 0.100000
B(  0-F ,  4-C ) :   1.1753 B(  0-F ,  5-C ) :  -0.1391 B(  1-O ,  4-C ) :   1.0938 
B(  1-O ,  6-C ) :   1.0400 B(  2-O ,  5-C ) :   1.0072 B(  2-O ,  6-C ) :   1.0879 
B(  3-O ,  6-C ) :   1.9963 B(  4-C ,  5-C ) :   0.8842 B(  4-C ,  7-H ) :   0.9421 
B(  5-C ,  8-H ) :   0.9450 B(  5-C ,  9-H ) :   0.9831 

-------
TIMINGS
-------

Total SCF time: 0 days 0 hours 0 min 2 sec 

Total time                  ....       2.887 sec
Sum of individual times     ....       2.862 sec  ( 99.1%)

SCF preparation             ....       0.861 sec  ( 29.8%)
Fock matrix formation       ....       1.773 sec  ( 61.4%)
  Startup                   ....       0.010 sec  (  0.5% of F)
  Split-RI-J                ....       0.186 sec  ( 10.5% of F)
  Chain of spheres X        ....       1.188 sec  ( 67.0% of F)
  XC integration            ....       0.351 sec  ( 19.8% of F)
    XC Preparation          ....       0.000 sec  (  0.0% of XC)
    Basis function eval.    ....       0.067 sec  ( 19.2% of XC)
    Density eval.           ....       0.058 sec  ( 16.5% of XC)
    XC-Functional eval.     ....       0.013 sec  (  3.6% of XC)
    XC-Potential eval.      ....       0.068 sec  ( 19.2% of XC)
Diagonalization             ....       0.000 sec  (  0.0%)
Density matrix formation    ....       0.024 sec  (  0.8%)
Total Energy calculation    ....       0.020 sec  (  0.7%)
Population analysis         ....       0.011 sec  (  0.4%)
Orbital Transformation      ....       0.018 sec  (  0.6%)
Orbital Orthonormalization  ....       0.000 sec  (  0.0%)
DIIS solution               ....       0.103 sec  (  3.6%)
SOSCF solution              ....       0.052 sec  (  1.8%)
Finished LeanSCF after   2.9 sec

Maximum memory used throughout the entire LEANSCF-calculation: 18.0 MB
[ga00:175331] 31 more processes have sent help message help-mpi-btl-openib.txt / error in device init
[ga00:175331] Set MCA parameter "orte_base_help_aggregate" to 0 to see all help / error messages


-------------------------------------------------------------------------------
                          DFT DISPERSION CORRECTION                            
                                                                               
                              DFTD3 V3.1  Rev 1                                
                          USING Becke-Johnson damping                          
-------------------------------------------------------------------------------
The B3LYP functional is recognized
Active option DFTDOPT                   ...         4   

molecular C6(AA) [au] = 975.183494 


            DFT-D V3
 parameters
 s6 scaling factor         :     1.0000 
 a1 scaling factor         :     0.3981 
 s8 scaling factor         :     1.9889 
 a2 scaling factor         :     4.4211 
 ad hoc parameters k1-k3   :    16.0000     1.3333    -4.0000 

 Edisp/kcal,au: -7.577377872552  -0.012075318983 
 E6   /kcal   :  -3.608850807 
 E8   /kcal   :  -3.968527065 
 % E8         :  52.373355691 

-------------------------   ----------------
Dispersion correction           -0.012075319
-------------------------   ----------------


-------------------------   --------------------
FINAL SINGLE POINT ENERGY      -441.589043532763
-------------------------   --------------------

--------------------------------------------------------------------------
WARNING: There was an error initializing an OpenFabrics device.

  Local host:   ga00
  Local device: mlx5_0
--------------------------------------------------------------------------


           ************************************************************
           *        Program running with 32 parallel MPI-processes    *
           *              working on a common directory               *
           ************************************************************
------------------------------------------------------------------------------
                         ORCA SCF GRADIENT CALCULATION
------------------------------------------------------------------------------

Nuc. rep. gradient        (SHARK) ... done (  0.0 sec)
HCore & Overlap gradient  (SHARK) ... done (  0.0 sec)
Split-RIJ-J gradient      (SHARK) ... done (  0.1 sec)
COSX-gradient                     ... done (  0.8 sec)
XC gradient                       ... done (  0.1 sec)
Dispersion correction             ... done (  0.1 sec)

-------------------
DISPERSION GRADIENT
-------------------

   1   F   :   -0.000303303    0.000182821   -0.000131235
   2   O   :    0.000062908    0.000201208    0.000036381
   3   O   :    0.000160190   -0.000167944   -0.000041845
   4   O   :    0.000426383    0.000116991   -0.000071545
   5   C   :   -0.000213141    0.000072169    0.000046448
   6   C   :   -0.000137662   -0.000191031    0.000029394
   7   C   :    0.000412255    0.000097160   -0.000052478
   8   H   :   -0.000192345    0.000123793    0.000134703
   9   H   :   -0.000080390   -0.000221081    0.000124672
  10   H   :   -0.000134896   -0.000214085   -0.000074495

Difference to translation invariance:
           :   -0.0000000000   -0.0000000000   -0.0000000000

Difference to rotation invariance:
           :    0.0000000000    0.0000000000   -0.0000000000

Norm of the Dispersion gradient    ...    0.0009730406
RMS gradient                       ...    0.0001776521
MAX gradient                       ...    0.0004263826

------------------
CARTESIAN GRADIENT
------------------

   1   F   :    0.001721000   -0.001042325    0.002947314
   2   O   :    0.000469852   -0.002045148   -0.001263911
   3   O   :   -0.000707161    0.001841448    0.000934180
   4   O   :   -0.002362668   -0.000854008    0.000435732
   5   C   :   -0.000631515    0.000327066   -0.002615371
   6   C   :    0.000771879    0.000948908   -0.000128221
   7   C   :    0.000382285    0.000600052    0.000169969
   8   H   :    0.000250956   -0.000313769   -0.000259311
   9   H   :   -0.000211482    0.000097679   -0.000812632
  10   H   :    0.000316853    0.000440098    0.000592250

Difference to translation invariance:
           :    0.0000000000    0.0000000000   -0.0000000000

Difference to rotation invariance:
           :    0.0000194517    0.0000179316    0.0001663554

Norm of the Cartesian gradient     ...    0.0064017774
RMS gradient                       ...    0.0011687993
MAX gradient                       ...    0.0029473142

-------
TIMINGS
-------

Total SCF gradient time     ....        1.117 sec

Densities                   ....       0.001 sec  (  0.1%)
One electron gradient       ....       0.017 sec  (  1.5%)
RI-J Coulomb gradient       ....       0.096 sec  (  8.6%)
COSX gradient               ....       0.794 sec  ( 71.1%)
XC gradient                 ....       0.144 sec  ( 12.9%)

Maximum memory used throughout the entire SCFGRAD-calculation: 30.2 MB
