
                                 *****************
                                 * O   R   C   A *
                                 *****************

                                            #,                                       
                                            ###                                      
                                            ####                                     
                                            #####                                    
                                            ######                                   
                                           ########,                                 
                                     ,,################,,,,,                         
                               ,,#################################,,                 
                          ,,##########################################,,             
                       ,#########################################, ''#####,          
                    ,#############################################,,   '####,        
                  ,##################################################,,,,####,       
                ,###########''''           ''''###############################       
              ,#####''   ,,,,##########,,,,          '''####'''          '####       
            ,##' ,,,,###########################,,,                        '##       
           ' ,,###''''                  '''############,,,                           
         ,,##''                                '''############,,,,        ,,,,,,###''
      ,#''                                            '''#######################'''  
     '                                                          ''''####''''         
             ,#######,   #######,   ,#######,      ##                                
            ,#'     '#,  ##    ##  ,#'     '#,    #''#        ,####,   ,####,        
            ##       ##  ##   ,#'  ##            #'  '#       #'       #'  '#        
            ##       ##  #######   ##           ,######,      #####,   #    #        
            '#,     ,#'  ##    ##  '#,     ,#' ,#      #,     #,   #   #,  ,#        
             '#######'   ##     ##  '#######'  #'      '#     '####' # '####'        



                #########################################################
                #                        -***-                          #
                #          Department of theory and spectroscopy        #
                #                                                       #
                #                      Frank Neese                      #
                #                                                       #
                #     Directorship, Architecture, Infrastructure        #
                #                    SHARK, DRIVERS                     #
                #        Core code/Algorithms in most modules           #
                #                                                       #
                #        Max Planck Institute fuer Kohlenforschung      #
                #                Kaiser Wilhelm Platz 1                 #
                #                 D-45470 Muelheim/Ruhr                 #
                #                      Germany                          #
                #                                                       #
                #                  All rights reserved                  #
                #                        -***-                          #
                #########################################################


                         Program Version 6.0.1  -  RELEASE   -


 With contributions from (in alphabetic order):
[Max-Planck-Institut fuer Kohlenforschung]                               
  Daniel Aravena         : Magnetic Suceptibility                        
  Michael Atanasov       : Ab Initio Ligand Field Theory (pilot matlab implementation)
  Alexander A. Auer      : GIAO ZORA, VPT2 properties, NMR spectrum      
  Ute Becker             : All parallelization in ORCA, NUMFREQ, NUMCALC 
  Giovanni Bistoni       : ED, misc. LED, open-shell LED, HFLD           
  Martin Brehm           : Molecular dynamics                            
  Dmytro Bykov           : pre 5.0 version of the SCF Hessian            
  Marcos Casanova-Páez   : Triplet and SCS-CIS(D). UHF-(DLPNO)-IP/EA/STEOM-CCSD. UHF-CVS-IP/STEOM-CCSD   
  Vijay G. Chilkuri      : MRCI spin determinant printing, contributions to CSF-ICE 
  Pauline Colinet        : FMM embedding                                 
  Dipayan Datta          : RHF DLPNO-CCSD density                        
  Achintya Kumar Dutta   : EOM-CC, STEOM-CC                              
  Nicolas Foglia         : Exact transition moments, OPA infrastructure, MCD improvements    
  Dmitry Ganyushin       : Spin-Orbit,Spin-Spin,Magnetic field MRCI      
  Miquel Garcia-Rates    : C-PCM and meta-GGA Hessian, CCSD/C-PCM, Gaussian charge scheme 
  Tiago L. C. Gouveia    : GS-ROHF, GS-ROCIS                             
  Yang Guo               : DLPNO-NEVPT2, F12-NEVPT2, CIM, IAO-localization        
  Andreas Hansen         : Spin unrestricted coupled pair/coupled cluster methods 
  Ingolf Harden          : AUTO-CI MPn and infrastructure                
  Benjamin Helmich-Paris : MC-RPA, TRAH-(SCF,CASSCF), AVAS, COSX integrals, SCF dyn. polar. 
  Lee Huntington         : MR-EOM, pCC                                   
  Robert Izsak           : Overlap fitted RIJCOSX, COSX-SCS-MP3, EOM     
  Riya Kayal             : Wick's Theorem for AUTO-CI, AUTO-CI UHF-CCSDT 
  Emily Kempfer          : AUTO-CI, RHF CISDT and CCSDT                  
  Christian Kollmar      : KDIIS, OOCD, Brueckner-CCSD(T), CCSD density, CASPT2, CASPT2-K, improved NEVPT2 
  Axel Koslowski         : Symmetry handling                             
  Simone Kossmann        : meta-GGA functionals, TD-DFT gradient, OOMP2, (MP2 Hessian; deprecated post 5.0) 
  Lucas Lang             : DCDCAS                                        
  Marvin Lechner         : AUTO-CI (C++ implementation), FIC-MRCC        
  Spencer Leger          : CASSCF response                               
  Dagmar Lenk            : GEPOL surface, SMD, ORCA-2-JSON               
  Dimitrios Liakos       : Extrapolation schemes; Compound Job, initial MDCI parallelization 
  Dimitrios Manganas     : Further ROCIS development; embedding schemes. LFT, Crystal Embedding 
  Dimitrios Pantazis     : SARC Basis sets                               
  Anastasios Papadopoulos: AUTO-CI, single reference methods and gradients 
  Taras Petrenko         : pre 6.0 DFT Hessian and TD-DFT gradient, (ASA, deprecated), ECA, 1-Electron XAS/XES, NRVS 
  Peter Pinski           : DLPNO-MP2, DLPNO-MP2 Gradient                 
  Christoph Reimann      : Effective Core Potentials                     
  Marius Retegan         : Local ZFS, SOC                                
  Christoph Riplinger    : Optimizer, TS searches, QM/MM, DLPNO-CCSD(T), (RO)-DLPNO pert. Triples 
  Michael Roemelt        : Original ROCIS implementation                 
  Masaaki Saitow         : Open-shell DLPNO-CCSD energy and density      
  Barbara Sandhoefer     : DKH picture change effects                    
  Kantharuban Sivalingam : CASSCF convergence/infrastructure, NEVPT2 and variants, FIC-MRCI 
  Bernardo de Souza      : ESD, SOC TD-DFT                               
  Georgi L. Stoychev     : AutoAux, RI-MP2 NMR, DLPNO-MP2 response, X2C  
  Van Anh Tran           : RI-MP2 g-tensors                              
  Willem Van den Heuvel  : Paramagnetic NMR                              
  Zikuan Wang            : NOTCH, Electric field optimization            
  Frank Wennmohs         : Technical directorship and infrastructure     
  Hang Xu                : AUTO-CI-Response properties                   
                                                                         
[FACCTs GmbH]                                                            
  Markus Bursch, Miquel Garcia-Rates, Christoph Riplinger, Bernardo de Souza, Georgi L. Stoychev 
                                                                 
  APM, Basis sets (HGBS, AHGBS, def-TZVP (Ac-Lr), def2-XVPD (La-Lu)), CI-OPT, improved COSX, DLPNO-Multilevel,           
  DOCKER, DRACO, updates on ESD, GOAT, IRC, LR-CPCM, MBIS, meta-GGA TD-DFT gradient, ML-optimized integration grids, 
  MM, NACMEs, nearIR, NEB, NEB-TS, NL-DFT gradient (VV10), 2- and 3-layer-ONIOM, interface openCOSMO-RS, QMMM,   
  Crystal-QMMM, SF, symmetry and pop. for TD-DFT, r2SCAN hybrids, SOLVATOR                                   
                                                                         
[Other institutions]                                                     
  V. Asgeirsson          : NEB                                           
  Christoph Bannwarth    : sTDA-DFT, sTD-DFT, PBEh-3c, B97-3c, D3        
  Sebastian Ehlert       : rSCAN, r2SCAN, r2SCAN-3c, D4, dhf basis sets  
  Marvin Friede          : D4 for Fr, Ra, Ac-Lr                          
  Lars Goerigk           : TD-DFT with DH, B97 family of functionals     
  Stefan Grimme          : VdW corrections, initial TS optimization, DFT functionals, gCP, sTDA/sTD-DF 
  Waldemar Hujo          : DFT-NL                                        
  H. Jonsson             : NEB                                           
  Holger Kruse           : gCP                                           
  Marcel Mueller         : wB97X-3c, vDZP basis set                      
  Hagen Neugebauer       : wr2SCAN                                       
  Tobias Risthaus        : range-separated hybrid DFT                    
  Lukas Wittmann         : regularized MP2, r2SCAN double-hybrids, wr2SCAN        
                                                                         
We gratefully acknowledge several colleagues who have allowed us to      
interface, adapt or use parts of their codes:                            
  Ed Valeev, F. Pavosevic, A. Kumar             : LibInt (2-el integral package), F12 methods 
  Garnet Chan, S. Sharma, J. Yang, R. Olivares  : DMRG                   
  Ulf Ekstrom                                   : XCFun DFT Library      
  Mihaly Kallay                                 : mrcc  (arbitrary order and MRCC methods)
  Frank Weinhold                                : gennbo (NPA and NBO analysis)           
  Simon Mueller                                 : openCOSMO-RS                            
  Christopher J. Cramer and Donald G. Truhlar   : smd solvation model                     
  S Lehtola, MJT Oliveira, MAL Marques          : LibXC Library                           
  Liviu Ungur et al                             : ANISO software                          


 Your calculation uses the libint2 library for the computation of 2-el integrals
 For citations please refer to: http://libint.valeyev.net

 Your ORCA version has been built with support for libXC version: 6.2.2
 For citations please refer to: https://libxc.gitlab.io

 This ORCA versions uses:
   CBLAS   interface :  Fast vector & matrix operations
   LAPACKE interface :  Fast linear algebra routines
   SCALAPACK package :  Parallel linear algebra routines
   Shared memory     :  Shared parallel matrices
   BLAS/LAPACK       :  OpenBLAS 0.3.27  USE64BITINT DYNAMIC_ARCH NO_AFFINITY SkylakeX SINGLE_THREADED
        Core in use  :  SkylakeX
   Copyright (c) 2011-2014, The OpenBLAS Project


NOTE: MaxCore=5000 MB was set to SCF,MP2,MDCI,CIPSI,MRCI and CIS
      => If you want to overwrite this, your respective input block should be placed after the MaxCore statement
Your calculation utilizes the atom-pairwise dispersion correction
with the Becke-Johnson damping scheme (D3BJ)


Warning: RI is on but no J-basis has been assigned. Assigning Def2/J (nothing to worry about!)
================================================================================

----- Orbital basis set information -----
Your calculation utilizes the basis: 6-311++G(d,p)
   H, Li - Ne  : R. Krishnan, J. S. Binkley, R. Seeger and J. A. Pople, J. Chem. Phys. 72, 650 (1980).
   Na - Ar     : A. D. McLean and G. S. Chandler J. Chem. Phys. 72, 5639, (1980).
   K  - Ca     : J.-P. Blaudeau, M. P. McGrath, L. A. Curtiss and L. Radom, J. Chem. Phys. 107, 5016 (1997).
   Ga - Kr     : L. A. Curtiss, M. P. McGrath, J.-P. Blandeau, N. E. Davis, R. C. Binning and L. Radom, J. Chem. Phys. 103, 6104 (1995).
   Pol./Diff.
   H, Li - Cl  : T. Clark, J. Chandrasekhar and P. v. R. Schleyer, J. Comp. Chem. 4, 294 (1983).
   H - Ne      : M. J. Frisch, J. A. Pople and J. S. Binkley, J. Chem. Phys. 80, 3265 (1984).

----- AuxJ basis set information -----
Your calculation utilizes the auxiliary basis: def2/J
   F. Weigend, Phys. Chem. Chem. Phys. 8, 1057 (2006).

================================================================================
                                        WARNINGS
                       Please study these warnings very carefully!
================================================================================

WARNING: Old DensityContainer found on disk!
         Will remove this file - 
         If you want to keep old densities, please start your calculation with a different basename. 


WARNING: Geometry Optimization
  ===> : Switching off AutoStart
         For restart on a previous wavefunction, please use MOREAD

================================================================================
                                       INPUT FILE
================================================================================
NAME = input.inp
|  1> ! B3LYP D3BJ 6-311++G(d,p) Opt TightSCF RIJCOSX
|  2> 
|  3> %maxcore 5000
|  4> 
|  5> %pal
|  6> nprocs 32
|  7> end
|  8> 
|  9> * xyz 0 1
| 10>   F          -1.89301596075366      0.66597098726226     -0.69135489914406
| 11>   O           0.04939793642097      0.91722464588469      0.44009556496219
| 12>   O           0.55763946449402     -1.17045043524101     -0.15539764768855
| 13>   O           2.16087405551391      0.41999520751740     -0.21533050767150
| 14>   C          -1.17984673250564      0.25605579222863      0.41492408780719
| 15>   C          -0.80120895807472     -1.21593033369283      0.28833194020295
| 16>   C           1.04709495587539      0.08120316204617     -0.00956435859207
| 17>   H          -1.75876439456511      0.52791078852933      1.29500878121697
| 18>   H          -0.85040051995893     -1.73773395933129      1.24482497526557
| 19>   H          -1.40846984644623     -1.72524585520334     -0.45623793635869
| 20> *
| 21> 
| 22>                          ****END OF INPUT****
================================================================================

                       *****************************
                       * Geometry Optimization Run *
                       *****************************

Geometry optimization settings:
Update method            Update   .... BFGS
Choice of coordinates    CoordSys .... (2022) Redundant Internals
Initial Hessian          InHess   .... Almloef's Model
Max. no of cycles        MaxIter  .... 50

Convergence Tolerances:
Energy Change            TolE     ....  5.0000e-06 Eh
Max. Gradient            TolMAXG  ....  3.0000e-04 Eh/bohr
RMS Gradient             TolRMSG  ....  1.0000e-04 Eh/bohr
Max. Displacement        TolMAXD  ....  4.0000e-03 bohr
RMS Displacement         TolRMSD  ....  2.0000e-03 bohr
Strict Convergence                .... False

------------------------------------------------------------------------------
                        ORCA OPTIMIZATION COORDINATE SETUP
------------------------------------------------------------------------------

The optimization will be done in redundant internal coordinates (2022)
Making redundant internal coordinates   ...  (2022 redundants) done
Evaluating the initial hessian          ...  (Almloef) done
Evaluating the coordinates              ...  done
Calculating the B-matrix                .... done
Calculating the G-matrix                .... done
Diagonalizing the G-matrix              .... done
The first mode is                       ....   19
The number of degrees of freedom        ....   24

    -----------------------------------------------------------------
                    Redundant Internal Coordinates


    -----------------------------------------------------------------
         Definition                    Initial Value    Approx d2E/dq
    -----------------------------------------------------------------
      1. B(C   4,O   1)                  1.3960         0.547394   
      2. B(C   4,F   0)                  1.3786         0.542226   
      3. B(C   5,O   2)                  1.4302         0.482792   
      4. B(C   5,C   4)                  1.5252         0.380266   
      5. B(C   6,O   2)                  1.3518         0.643810   
      6. B(C   6,O   3)                  1.1822         1.200574   
      7. B(C   6,O   1)                  1.3771         0.586660   
      8. B(H   7,C   4)                  1.0879         0.362844   
      9. B(H   8,C   5)                  1.0907         0.359205   
     10. B(H   9,C   5)                  1.0875         0.363486   
     11. A(C   4,O   1,C   6)          110.1527         0.414874   
     12. A(C   5,O   2,C   6)          109.8756         0.412476   
     13. A(F   0,C   4,O   1)          109.2182         0.407328   
     14. A(F   0,C   4,H   7)          107.4325         0.341932   
     15. A(O   1,C   4,C   5)          103.8862         0.386864   
     16. A(O   1,C   4,H   7)          109.6107         0.343899   
     17. A(C   5,C   4,H   7)          116.1306         0.325673   
     18. A(F   0,C   4,C   5)          110.4139         0.384566   
     19. A(C   4,C   5,H   8)          112.1945         0.325133   
     20. A(O   2,C   5,H   8)          109.2782         0.336192   
     21. A(C   4,C   5,H   9)          111.7293         0.325767   
     22. A(O   2,C   5,C   4)          103.3523         0.378517   
     23. A(H   8,C   5,H   9)          110.5606         0.291154   
     24. A(O   2,C   5,H   9)          109.4529         0.336855   
     25. A(O   1,C   6,O   2)          109.5724         0.427062   
     26. A(O   2,C   6,O   3)          125.9917         0.486546   
     27. A(O   1,C   6,O   3)          124.4296         0.478270   
     28. D(F   0,C   4,O   1,C   6)   -101.7067         0.023870   
     29. D(C   5,C   4,O   1,C   6)     16.1126         0.023870   
     30. D(H   7,C   4,O   1,C   6)    140.8417         0.023870   
     31. D(H   8,C   5,C   4,H   7)    -20.1793         0.011524   
     32. D(H   9,C   5,O   2,C   6)    132.2720         0.018392   
     33. D(O   2,C   5,C   4,F   0)     99.6295         0.011524   
     34. D(H   8,C   5,O   2,C   6)   -106.5218         0.018392   
     35. D(O   2,C   5,C   4,H   7)   -137.7807         0.011524   
     36. D(H   8,C   5,C   4,F   0)   -142.7691         0.011524   
     37. D(H   8,C   5,C   4,O   1)    100.2427         0.011524   
     38. D(O   2,C   5,C   4,O   1)    -17.3586         0.011524   
     39. D(C   4,C   5,O   2,C   6)     13.1038         0.018392   
     40. D(O   1,C   6,O   2,C   5)     -3.7232         0.030585   
     41. D(O   3,C   6,O   1,C   4)    172.3172         0.025065   
     42. D(O   2,C   6,O   1,C   4)     -8.5556         0.025065   
     43. D(O   3,C   6,O   2,C   5)    175.3871         0.030585   
    -----------------------------------------------------------------

Number of atoms                         .... 10
Number of degrees of freedom            .... 43


         *************************************************************
         *                GEOMETRY OPTIMIZATION CYCLE   1            *
         *************************************************************
---------------------------------
CARTESIAN COORDINATES (ANGSTROEM)
---------------------------------
  F     -1.893016    0.665971   -0.691355
  O      0.049398    0.917225    0.440096
  O      0.557639   -1.170450   -0.155398
  O      2.160874    0.419995   -0.215331
  C     -1.179847    0.256056    0.414924
  C     -0.801209   -1.215930    0.288332
  C      1.047095    0.081203   -0.009564
  H     -1.758764    0.527911    1.295009
  H     -0.850401   -1.737734    1.244825
  H     -1.408470   -1.725246   -0.456238

----------------------------
CARTESIAN COORDINATES (A.U.)
----------------------------
  NO LB      ZA    FRAG     MASS         X           Y           Z
   0 F     9.0000    0    18.998   -3.577282    1.258503   -1.306471
   1 O     8.0000    0    15.999    0.093349    1.733303    0.831660
   2 O     8.0000    0    15.999    1.053786   -2.211831   -0.293659
   3 O     8.0000    0    15.999    4.083460    0.793676   -0.406916
   4 C     6.0000    0    12.011   -2.229587    0.483875    0.784093
   5 C     6.0000    0    12.011   -1.514066   -2.297775    0.544868
   6 C     6.0000    0    12.011    1.978723    0.153452   -0.018074
   7 H     1.0000    0     1.008   -3.323583    0.997607    2.447212
   8 H     1.0000    0     1.008   -1.607024   -3.283841    2.352378
   9 H     1.0000    0     1.008   -2.661622   -3.260242   -0.862165

--------------------------------
INTERNAL COORDINATES (ANGSTROEM)
--------------------------------
 F      0   0   0     0.000000000000     0.00000000     0.00000000
 O      1   0   0     2.261919605476     0.00000000     0.00000000
 O      2   1   0     2.229643213952    87.60112248     0.00000000
 O      3   2   1     2.259086196699    60.63716509   138.66695916
 C      1   2   3     1.378584060625    35.64641919    68.22269604
 C      3   2   1     1.430186492682    74.35558001   314.59875749
 C      4   3   2     1.182211335157    28.95794804   359.40592370
 H      5   1   2     1.087933759947   107.43249579   118.81646341
 H      6   3   2     1.090677660729   109.27818444   251.22913880
 H      6   3   2     1.087452246345   109.45291890   130.02287463

---------------------------
INTERNAL COORDINATES (A.U.)
---------------------------
 F      0   0   0     0.000000000000     0.00000000     0.00000000
 O      1   0   0     4.274408591296     0.00000000     0.00000000
 O      2   1   0     4.213415050726    87.60112248     0.00000000
 O      3   2   1     4.269054224684    60.63716509   138.66695916
 C      1   2   3     2.605146327170    35.64641919    68.22269604
 C      3   2   1     2.702660791603    74.35558001   314.59875749
 C      4   3   2     2.234055655864    28.95794804   359.40592370
 H      5   1   2     2.055896858147   107.43249579   118.81646341
 H      6   3   2     2.061082079164   109.27818444   251.22913880
 H      6   3   2     2.054986929309   109.45291890   130.02287463

---------------------
BASIS SET INFORMATION
---------------------
There are 4 groups of distinct atoms

 Group   1 Type F   : 12s6p1d contracted to 5s4p1d pattern {63111/3111/1}
 Group   2 Type O   : 12s6p1d contracted to 5s4p1d pattern {63111/3111/1}
 Group   3 Type C   : 12s6p1d contracted to 5s4p1d pattern {63111/3111/1}
 Group   4 Type H   : 6s1p contracted to 4s1p pattern {3111/1}

Atom   0F    basis set group =>   1
Atom   1O    basis set group =>   2
Atom   2O    basis set group =>   2
Atom   3O    basis set group =>   2
Atom   4C    basis set group =>   3
Atom   5C    basis set group =>   3
Atom   6C    basis set group =>   3
Atom   7H    basis set group =>   4
Atom   8H    basis set group =>   4
Atom   9H    basis set group =>   4
---------------------------------
AUXILIARY/J BASIS SET INFORMATION
---------------------------------
There are 4 groups of distinct atoms

 Group   1 Type F   : 12s5p4d2f1g contracted to 6s4p3d1f1g pattern {711111/2111/211/2/1}
 Group   2 Type O   : 12s5p4d2f1g contracted to 6s4p3d1f1g pattern {711111/2111/211/2/1}
 Group   3 Type C   : 12s5p4d2f1g contracted to 6s4p3d1f1g pattern {711111/2111/211/2/1}
 Group   4 Type H   : 5s2p1d contracted to 3s1p1d pattern {311/2/1}

Atom   0F    basis set group =>   1
Atom   1O    basis set group =>   2
Atom   2O    basis set group =>   2
Atom   3O    basis set group =>   2
Atom   4C    basis set group =>   3
Atom   5C    basis set group =>   3
Atom   6C    basis set group =>   3
Atom   7H    basis set group =>   4
Atom   8H    basis set group =>   4
Atom   9H    basis set group =>   4
--------------------------------------------------------------------------
WARNING: There was an error initializing an OpenFabrics device.

  Local host:   ga00
  Local device: mlx5_0
--------------------------------------------------------------------------


           ************************************************************
           *        Program running with 32 parallel MPI-processes    *
           *              working on a common directory               *
           ************************************************************
------------------------------------------------------------------------------
                             ORCA STARTUP CALCULATIONS
                           -- RI-GTO INTEGRALS CHOSEN --
------------------------------------------------------------------------------
------------------------------------------------------------------------------
                   ___                                                        
                  /   \      - P O W E R E D   B Y -                         
                 /     \                                                     
                 |  |  |   _    _      __       _____    __    __             
                 |  |  |  | |  | |    /  \     |  _  \  |  |  /  |          
                  \  \/   | |  | |   /    \    | | | |  |  | /  /          
                 / \  \   | |__| |  /  /\  \   | |_| |  |  |/  /          
                |  |  |   |  __  | /  /__\  \  |    /   |      \           
                |  |  |   | |  | | |   __   |  |    \   |  |\   \          
                \     /   | |  | | |  |  |  |  | |\  \  |  | \   \       
                 \___/    |_|  |_| |__|  |__|  |_| \__\ |__|  \__/        
                                                                              
                      - O R C A' S   B I G   F R I E N D -                    
                                      &                                       
                       - I N T E G R A L  F E E D E R -                       
                                                                              
 v1 FN, 2020, v2 2021, v3 2022-2024                                           
------------------------------------------------------------------------------


----------------------
SHARK INTEGRAL PACKAGE
----------------------

Number of atoms                             ...     10
Number of basis functions                   ...    175
Number of shells                            ...     85
Maximum angular momentum                    ...      2
Integral batch strategy                     ... SHARK/LIBINT Hybrid
RI-J (if used) integral strategy            ... SPLIT-RIJ (Revised 2003 algorithm where possible)
Printlevel                                  ...      1
Contraction scheme used                     ... SEGMENTED contraction
Prescreening option                         ... SCHWARTZ
   Thresh                                   ... 2.500e-11
   Tcut                                     ... 2.500e-12
   Tpresel                                  ... 2.500e-12 
Coulomb Range Separation                    ... NOT USED
Exchange Range Separation                   ... NOT USED
Multipole approximations                    ... NOT USED
Finite Nucleus Model                        ... NOT USED
CABS basis                                  ... NOT available
Auxiliary Coulomb fitting basis             ... AVAILABLE
   # of basis functions in Aux-J            ...    376
   # of shells in Aux-J                     ...    120
   Maximum angular momentum in Aux-J        ...      4
Auxiliary J/K fitting basis                 ... NOT available
Auxiliary Correlation fitting basis         ... NOT available
Auxiliary 'external' fitting basis          ... NOT available

Checking pre-screening integrals            ... done (  0.0 sec) Dimension = 85
Check shell pair data                       ... done (  0.0 sec)
Shell pair information
Shell pair cut-off parameter TPreSel        ...   2.5e-12
Total number of shell pairs                 ...      3655
Shell pairs after pre-screening             ...      3476
Total number of primitive shell pairs       ...     12091
Primitive shell pairs kept                  ...      8826
          la=0 lb=0:   1050 shell pairs
          la=1 lb=0:   1392 shell pairs
          la=1 lb=1:    486 shell pairs
          la=2 lb=0:    310 shell pairs
          la=2 lb=1:    211 shell pairs
          la=2 lb=2:     27 shell pairs

Calculating one electron integrals          ... done (  0.0 sec)
Calculating RI/J V-Matrix + Cholesky decomp.... done (  0.0 sec)
Calculating Nuclear repulsion               ... done (  0.0 sec) ENN=    322.411672707861 Eh

Diagonalization of the overlap matrix:
Smallest eigenvalue                        ... 7.181e-05
Time for diagonalization                   ...    0.002 sec
Threshold for overlap eigenvalues          ... 1.000e-07
Number of eigenvalues below threshold      ... 0
Time for construction of square roots      ...    0.002 sec
Total time needed                          ...    0.005 sec

-------------------
DFT GRID GENERATION
-------------------

General Integration Accuracy     IntAcc      ... 4.388
Radial Grid Type                 RadialGrid  ... OptM3 with GC (2021)
Angular Grid (max. ang.)         AngularGrid ... 4 (Lebedev-302)
Angular grid pruning method      GridPruning ... 4 (adaptive)
Weight generation scheme         WeightScheme... mBecke (2022)
Basis function cutoff            BFCut       ... 1.0000e-11
Integration weight cutoff        WCut        ... 1.0000e-14
Partially contracted basis set               ... off
Rotationally invariant grid construction     ... off
Angular grids for H and He will be reduced by one unit
Diffuse basis detected: some atoms will have their outermost
                        angular grid increased by 1.

Total number of grid points                  ...    54820
Total number of batches                      ...      861
Average number of points per batch           ...       63
Average number of grid points per atom       ...     5482

--------------------
COSX GRID GENERATION
--------------------

GRIDX 1
-------
General Integration Accuracy     IntAcc      ... 3.816
Radial Grid Type                 RadialGrid  ... OptM3 with GC (2021)
Angular Grid (max. ang.)         AngularGrid ... 1 (Lebedev-50)
Angular grid pruning method      GridPruning ... 4 (adaptive)
Weight generation scheme         WeightScheme... mBecke (2022)
Basis function cutoff            BFCut       ... 1.0000e-11
Integration weight cutoff        WCut        ... 1.0000e-14
Partially contracted basis set               ... on
Rotationally invariant grid construction     ... off
Angular grids for H and He will be reduced by one unit
Diffuse basis detected: some atoms will have their outermost
                        angular grid increased by 1.

Total number of grid points                  ...     6921
Total number of batches                      ...       61
Average number of points per batch           ...      113
Average number of grid points per atom       ...      692
UseSFitting                                  ... on

GRIDX 2
-------
General Integration Accuracy     IntAcc      ... 4.020
Radial Grid Type                 RadialGrid  ... OptM3 with GC (2021)
Angular Grid (max. ang.)         AngularGrid ... 2 (Lebedev-110)
Angular grid pruning method      GridPruning ... 4 (adaptive)
Weight generation scheme         WeightScheme... mBecke (2022)
Basis function cutoff            BFCut       ... 1.0000e-11
Integration weight cutoff        WCut        ... 1.0000e-14
Partially contracted basis set               ... on
Rotationally invariant grid construction     ... off
Angular grids for H and He will be reduced by one unit
Diffuse basis detected: some atoms will have their outermost
                        angular grid increased by 1.

Total number of grid points                  ...    17865
Total number of batches                      ...      145
Average number of points per batch           ...      123
Average number of grid points per atom       ...     1786
UseSFitting                                  ... on

GRIDX 3
-------
General Integration Accuracy     IntAcc      ... 4.338
Radial Grid Type                 RadialGrid  ... OptM3 with GC (2021)
Angular Grid (max. ang.)         AngularGrid ... 3 (Lebedev-194)
Angular grid pruning method      GridPruning ... 4 (adaptive)
Weight generation scheme         WeightScheme... mBecke (2022)
Basis function cutoff            BFCut       ... 1.0000e-11
Integration weight cutoff        WCut        ... 1.0000e-14
Partially contracted basis set               ... on
Rotationally invariant grid construction     ... off
Angular grids for H and He will be reduced by one unit
Diffuse basis detected: some atoms will have their outermost
                        angular grid increased by 1.

Total number of grid points                  ...    39185
Total number of batches                      ...      312
Average number of points per batch           ...      125
Average number of grid points per atom       ...     3918
UseSFitting                                  ... on
Initializing property integral containers    ... done (  0.0 sec)

SHARK setup successfully completed in   0.5 seconds

Maximum memory used throughout the entire STARTUP-calculation: 17.3 MB
[ga00:195856] 31 more processes have sent help message help-mpi-btl-openib.txt / error in device init
[ga00:195856] Set MCA parameter "orte_base_help_aggregate" to 0 to see all help / error messages
--------------------------------------------------------------------------
WARNING: There was an error initializing an OpenFabrics device.

  Local host:   ga00
  Local device: mlx5_0
--------------------------------------------------------------------------


           ************************************************************
           *        Program running with 32 parallel MPI-processes    *
           *              working on a common directory               *
           ************************************************************
-------------------------------------------------------------------------------
                                 ORCA GUESS
                   Start orbitals & Density for SCF / CASSCF
-------------------------------------------------------------------------------

------------
SCF SETTINGS
------------
Hamiltonian:
 Density Functional     Method          .... DFT(GTOs)
 Exchange Functional    Exchange        .... B88
   X-Alpha parameter    XAlpha          ....  0.666667
   Becke's b parameter  XBeta           ....  0.004200
 Correlation Functional Correlation     .... LYP
 LDA part of GGA corr.  LDAOpt          .... VWN-5
 Gradients option       PostSCFGGA      .... off
 Hybrid DFT is turned on
   Fraction HF Exchange ScalHFX         ....  0.200000
   Scaling of DF-GGA-X  ScalDFX         ....  0.720000
   Scaling of DF-GGA-C  ScalDFC         ....  0.810000
   Scaling of DF-LDA-C  ScalLDAC        ....  1.000000
   Perturbative correction              ....  0.000000
   NL short-range parameter             ....  4.800000
 RI-approximation to the Coulomb term is turned on
   Number of AuxJ basis functions       .... 376
   RIJ-COSX (HFX calculated with COS-X)).... on


General Settings:
 Integral files         IntName         .... input
 Hartree-Fock type      HFTyp           .... RHF
 Total Charge           Charge          ....    0
 Multiplicity           Mult            ....    1
 Number of Electrons    NEL             ....   54
 Basis Dimension        Dim             ....  175
 Nuclear Repulsion      ENuc            ....    322.4116727079 Eh

Convergence Acceleration:
 AO-DIIS                CNVDIIS         .... on
   Start iteration      DIISMaxIt       ....    12
   Startup error        DIISStart       ....  0.200000
   # of expansion vecs  DIISMaxEq       ....     5
   Bias factor          DIISBfac        ....   1.050
   Max. coefficient     DIISMaxC        ....  10.000
 MO-DIIS                CNVKDIIS        .... off
 Trust-Rad. Augm. Hess. CNVTRAH         .... auto
   Auto Start mean grad. ratio tolernc. ....  1.125000
   Auto Start start iteration           ....    50
   Auto Start num. interpolation iter.  ....    10
   Max. Number of Micro iterations      ....    24
   Max. Number of Macro iterations      .... Maxiter - #DIIS iter
   Number of Davidson start vectors     ....     2
   Converg. threshold    (grad. norm)   ....   1.000e-05
   Grad. Scal. Fac. for Micro threshold ....   0.100
   Minimum threshold for Micro iter.    ....   1.000e-02
   NR start threshold (gradient norm)   ....   1.000e-04
   Initial trust radius                 ....   0.400
   Minimum AH scaling param. (alpha)    ....   1.000
   Maximum AH scaling param. (alpha)    .... 1000.000
   Quad. conv. algorithm                .... NR
   White noise on init. David. guess    .... on
   Maximum white noise                  ....   0.010
   Pseudo random numbers                .... off
   Inactive MOs                         .... canonical
   Orbital update algorithm             .... Taylor
   Preconditioner                       .... Diag
   Full preconditioner red. dimension   ....   250
 SOSCF                  CNVSOSCF        .... on
   Start iteration      SOSCFMaxIt      ....   150
   Startup grad/error   SOSCFStart      ....  0.003300
   Hessian update       SOSCFHessUp     .... L-BFGS
 Level Shifting         CNVShift        .... on
   Level shift para.    LevelShift      ....    0.2500
   Turn off err/grad.   ShiftErr        ....    0.0010
 Zerner damping         CNVZerner       .... off
 Static damping         CNVDamp         .... on
   Fraction old density DampFac         ....    0.7000
   Max. Damping (<1)    DampMax         ....    0.9800
   Min. Damping (>=0)   DampMin         ....    0.0000
   Turn off err/grad.   DampErr         ....    0.1000

SCF Procedure:
 Maximum # iterations   MaxIter         ....   125
 SCF integral mode      SCFMode         .... Direct
   Integral package                     .... SHARK and LIBINT hybrid scheme
 Reset frequency        DirectResetFreq ....    20
 Integral Threshold     Thresh          ....  2.500e-11 Eh
 Primitive CutOff       TCut            ....  2.500e-12 Eh

Convergence Tolerance:
 Convergence Check Mode ConvCheckMode   .... Total+1el-Energy
 Convergence forced     ConvForced      .... 0
 Energy Change          TolE            ....  1.000e-08 Eh
 1-El. energy change                    ....  1.000e-05 Eh
 Orbital Gradient       TolG            ....  1.000e-05
 Orbital Rotation angle TolX            ....  1.000e-05
 DIIS Error             TolErr          ....  5.000e-07

------------------------------
INITIAL GUESS: MODEL POTENTIAL
------------------------------
Loading Hartree-Fock densities                     ... done
Calculating cut-offs                               ... done
Initializing the effective Hamiltonian             ... done
Setting up the integral package (SHARK)            ... done
Starting the Coulomb interaction                   ... done (   0.0 sec)
Making the grid                                    ... done (   0.1 sec)
Mapping shells                                     ... done
Starting the XC term evaluation                    ... done (   0.0 sec)
  promolecular density results
     # of electrons  =     53.998217222
     EX              =    -50.996712453
     EC              =     -1.942386056
     EX+EC           =    -52.939098509
Transforming the Hamiltonian                       ... done (   0.0 sec)
Diagonalizing the Hamiltonian                      ... done (   0.0 sec)
Back transforming the eigenvectors                 ... done (   0.0 sec)
Now organizing SCF variables                       ... done
                      ------------------
                      INITIAL GUESS DONE (   0.1 sec)
                      ------------------
             **** ENERGY FILE WAS UPDATED (input.en.tmp) ****
Finished Guess after   0.8 sec
Maximum memory used throughout the entire GUESS-calculation: 11.4 MB
[ga00:196013] 31 more processes have sent help message help-mpi-btl-openib.txt / error in device init
[ga00:196013] Set MCA parameter "orte_base_help_aggregate" to 0 to see all help / error messages
--------------------------------------------------------------------------
WARNING: There was an error initializing an OpenFabrics device.

  Local host:   ga00
  Local device: mlx5_0
--------------------------------------------------------------------------


           ************************************************************
           *        Program running with 32 parallel MPI-processes    *
           *              working on a common directory               *
           ************************************************************

-------------------------------------------------------------------------------------------
                                      ORCA LEAN-SCF
                              memory conserving SCF solver
-------------------------------------------------------------------------------------------

----------------------------------------D-I-I-S--------------------------------------------
Iteration    Energy (Eh)           Delta-E    RMSDP     MaxDP     DIISErr   Damp  Time(sec)
-------------------------------------------------------------------------------------------
               ***  Starting incremental Fock matrix formation  ***
    1    -441.3676134087137370     0.00e+00  3.52e-03  7.77e-02  3.42e-01  0.700   0.2
    2    -441.4713011453198988    -1.04e-01  2.10e-03  3.29e-02  1.18e-01  0.700   0.1
                               ***Turning on AO-DIIS***
    3    -441.5029220636496348    -3.16e-02  6.77e-04  1.41e-02  3.32e-02  0.700   0.1
    4    -441.5251391841017039    -2.22e-02  1.06e-03  2.03e-02  1.50e-02  0.000   0.1
    5    -441.5767770070868892    -5.16e-02  2.48e-04  5.12e-03  4.94e-03  0.000   0.1
                              *** Initializing SOSCF ***
---------------------------------------S-O-S-C-F--------------------------------------
Iteration    Energy (Eh)           Delta-E    RMSDP     MaxDP     MaxGrad    Time(sec)
--------------------------------------------------------------------------------------
    6    -441.5769087713518957    -1.32e-04  8.22e-05  1.31e-03  2.38e-03     0.1
               *** Restarting incremental Fock matrix formation ***
    7    -441.5769365313738035    -2.78e-05  6.18e-05  1.28e-03  3.48e-04     0.2
    8    -441.5769325495385829     3.98e-06  2.87e-05  5.43e-04  5.71e-04     0.2
    9    -441.5769393582751263    -6.81e-06  1.26e-05  2.35e-04  7.22e-05     0.2
   10    -441.5769391231456211     2.35e-07  7.31e-06  1.46e-04  1.19e-04     0.2
   11    -441.5769394685110001    -3.45e-07  6.66e-07  2.26e-05  3.00e-06     0.2
   12    -441.5769394689880301    -4.77e-10  5.45e-07  2.38e-05  2.55e-06     0.1
                 **** Energy Check signals convergence ****

               *****************************************************
               *                     SUCCESS                       *
               *           SCF CONVERGED AFTER  12 CYCLES          *
               *****************************************************

Recomputing exchange energy using gridx3       ... done (    0.216 sec)
Old exchange energy                            :    -10.277950211 Eh
New exchange energy                            :    -10.277978956 Eh
Exchange energy change after final integration :     -0.000028745 Eh
Total energy after final integration           :   -441.576968214 Eh
             **** ENERGY FILE WAS UPDATED (input.en.tmp) ****

----------------
TOTAL SCF ENERGY
----------------

Total Energy       :       -441.57696821378005 Eh          -12015.92018 eV

Components:
Nuclear Repulsion  :        322.41167270786116 Eh            8773.26764 eV
Electronic Energy  :       -763.98861217684919 Eh          -20789.18704 eV
One Electron Energy:      -1245.13966285333345 Eh          -33881.97275 eV
Two Electron Energy:        481.15105067648426 Eh           13092.78571 eV

Virial components:
Potential Energy   :       -882.02825104977228 Eh          -24001.20891 eV
Kinetic Energy     :        440.45128283599217 Eh           11985.28873 eV
Virial Ratio       :          2.00255575456732

DFT components:
N(Alpha)           :       26.999934560214 electrons
N(Beta)            :       26.999934560214 electrons
N(Total)           :       53.999869120428 electrons
E(X)               :      -40.957944787257 Eh       
E(C)               :       -2.279187996507 Eh       
E(XC)              :      -43.237132783765 Eh       

---------------
SCF CONVERGENCE
---------------

  Last Energy change         ...    4.7703e-10  Tolerance :   1.0000e-08
  Last MAX-Density change    ...    2.3778e-05  Tolerance :   1.0000e-07
  Last RMS-Density change    ...    5.4503e-07  Tolerance :   5.0000e-09
  Last DIIS Error            ...    2.3826e-03  Tolerance :   5.0000e-07
  Last Orbital Gradient      ...    2.5452e-06  Tolerance :   1.0000e-05
  Last Orbital Rotation      ...    1.4813e-06  Tolerance :   1.0000e-05


----------------
ORBITAL ENERGIES
----------------

  NO   OCC          E(Eh)            E(eV) 
   0   2.0000     -24.704864      -672.2535 
   1   2.0000     -19.210088      -522.7331 
   2   2.0000     -19.207169      -522.6536 
   3   2.0000     -19.135337      -520.6990 
   4   2.0000     -10.370203      -282.1876 
   5   2.0000     -10.349209      -281.6163 
   6   2.0000     -10.276876      -279.6480 
   7   2.0000      -1.253299       -34.1040 
   8   2.0000      -1.187607       -32.3164 
   9   2.0000      -1.082219       -29.4487 
  10   2.0000      -1.074644       -29.2426 
  11   2.0000      -0.809601       -22.0304 
  12   2.0000      -0.712306       -19.3828 
  13   2.0000      -0.651695       -17.7335 
  14   2.0000      -0.589972       -16.0539 
  15   2.0000      -0.578708       -15.7475 
  16   2.0000      -0.543835       -14.7985 
  17   2.0000      -0.513345       -13.9688 
  18   2.0000      -0.489930       -13.3317 
  19   2.0000      -0.472913       -12.8686 
  20   2.0000      -0.453824       -12.3492 
  21   2.0000      -0.427695       -11.6382 
  22   2.0000      -0.409452       -11.1418 
  23   2.0000      -0.385844       -10.4993 
  24   2.0000      -0.367512       -10.0005 
  25   2.0000      -0.337726        -9.1900 
  26   2.0000      -0.325885        -8.8678 
  27   0.0000      -0.020611        -0.5608 
  28   0.0000      -0.000232        -0.0063 
  29   0.0000       0.006795         0.1849 
  30   0.0000       0.008926         0.2429 
  31   0.0000       0.019891         0.5412 
  32   0.0000       0.043248         1.1768 
  33   0.0000       0.056309         1.5322 
  34   0.0000       0.070770         1.9257 
  35   0.0000       0.072932         1.9846 
  36   0.0000       0.081507         2.2179 
  37   0.0000       0.098516         2.6808 
*Only the first 10 virtual orbitals were printed.

                    ********************************
                    * MULLIKEN POPULATION ANALYSIS *
                    ********************************

-----------------------
MULLIKEN ATOMIC CHARGES
-----------------------
   0 F :   -0.134472
   1 O :   -0.111814
   2 O :   -0.117828
   3 O :   -0.308580
   4 C :   -0.042669
   5 C :   -0.235553
   6 C :    0.332235
   7 H :    0.220952
   8 H :    0.181823
   9 H :    0.215907
Sum of atomic charges:   -0.0000000

--------------------------------
MULLIKEN REDUCED ORBITAL CHARGES
--------------------------------
  0 F s       :     3.907663  s :     3.907663
      pz      :     1.573684  p :     5.222116
      px      :     1.776606
      py      :     1.871826
      dz2     :     0.001269  d :     0.004693
      dxz     :     0.001634
      dyz     :     0.000934
      dx2y2   :     0.000382
      dxy     :     0.000474

  1 O s       :     3.748240  s :     3.748240
      pz      :     1.676294  p :     4.347899
      px      :     1.149233
      py      :     1.522372
      dz2     :     0.002153  d :     0.015675
      dxz     :     0.001930
      dyz     :     0.002546
      dx2y2   :     0.002287
      dxy     :     0.006758

  2 O s       :     3.767490  s :     3.767490
      pz      :     1.671044  p :     4.334507
      px      :     1.292572
      py      :     1.370891
      dz2     :     0.002109  d :     0.015831
      dxz     :     0.002299
      dyz     :     0.002517
      dx2y2   :     0.005973
      dxy     :     0.002933

  3 O s       :     3.936399  s :     3.936399
      pz      :     1.413236  p :     4.353094
      px      :     1.269609
      py      :     1.670250
      dz2     :     0.002345  d :     0.019086
      dxz     :     0.005228
      dyz     :     0.000666
      dx2y2   :     0.005981
      dxy     :     0.004865

  4 C s       :     3.235549  s :     3.235549
      pz      :     0.922771  p :     2.638959
      px      :     0.822762
      py      :     0.893425
      dz2     :     0.034484  d :     0.168162
      dxz     :     0.046422
      dyz     :     0.022732
      dx2y2   :     0.033328
      dxy     :     0.031195

  5 C s       :     3.277169  s :     3.277169
      pz      :     1.157936  p :     2.870421
      px      :     0.757852
      py      :     0.954633
      dz2     :     0.015320  d :     0.087963
      dxz     :     0.021458
      dyz     :     0.010693
      dx2y2   :     0.024367
      dxy     :     0.016126

  6 C s       :     2.983390  s :     2.983390
      pz      :     0.860040  p :     2.424057
      px      :     0.784465
      py      :     0.779552
      dz2     :     0.017800  d :     0.260318
      dxz     :     0.050905
      dyz     :     0.030118
      dx2y2   :     0.067409
      dxy     :     0.094086

  7 H s       :     0.758943  s :     0.758943
      pz      :     0.010562  p :     0.020105
      px      :     0.005407
      py      :     0.004136

  8 H s       :     0.796816  s :     0.796816
      pz      :     0.011860  p :     0.021361
      px      :     0.002458
      py      :     0.007043

  9 H s       :     0.762083  s :     0.762083
      pz      :     0.008972  p :     0.022011
      px      :     0.006144
      py      :     0.006895



                     *******************************
                     * LOEWDIN POPULATION ANALYSIS *
                     *******************************

----------------------
LOEWDIN ATOMIC CHARGES
----------------------
   0 F :   -0.143248
   1 O :   -0.064803
   2 O :   -0.086556
   3 O :   -0.093575
   4 C :    0.106361
   5 C :    0.073154
   6 C :   -0.002374
   7 H :    0.071887
   8 H :    0.064490
   9 H :    0.074665

-------------------------------
LOEWDIN REDUCED ORBITAL CHARGES
-------------------------------
  0 F s       :     3.734937  s :     3.734937
      pz      :     1.690486  p :     5.401739
      px      :     1.816644
      py      :     1.894609
      dz2     :     0.001794  d :     0.006573
      dxz     :     0.002394
      dyz     :     0.001296
      dx2y2   :     0.000452
      dxy     :     0.000637

  1 O s       :     3.418433  s :     3.418433
      pz      :     1.697518  p :     4.620514
      px      :     1.306371
      py      :     1.616625
      dz2     :     0.003360  d :     0.025857
      dxz     :     0.003590
      dyz     :     0.002913
      dx2y2   :     0.003929
      dxy     :     0.012064

  2 O s       :     3.421493  s :     3.421493
      pz      :     1.720012  p :     4.639229
      px      :     1.416876
      py      :     1.502341
      dz2     :     0.003422  d :     0.025834
      dxz     :     0.003695
      dyz     :     0.002926
      dx2y2   :     0.010445
      dxy     :     0.005346

  3 O s       :     3.480656  s :     3.480656
      pz      :     1.430381  p :     4.585563
      px      :     1.485339
      py      :     1.669842
      dz2     :     0.003929  d :     0.027356
      dxz     :     0.006121
      dyz     :     0.000762
      dx2y2   :     0.009785
      dxy     :     0.006759

  4 C s       :     2.750757  s :     2.750757
      pz      :     0.906529  p :     2.798860
      px      :     0.884218
      py      :     1.008113
      dz2     :     0.071847  d :     0.344023
      dxz     :     0.094576
      dyz     :     0.041134
      dx2y2   :     0.069080
      dxy     :     0.067386

  5 C s       :     2.766615  s :     2.766615
      pz      :     1.067865  p :     2.972852
      px      :     0.851781
      py      :     1.053206
      dz2     :     0.030601  d :     0.187380
      dxz     :     0.043864
      dyz     :     0.023515
      dx2y2   :     0.056770
      dxy     :     0.032629

  6 C s       :     2.713470  s :     2.713470
      pz      :     0.816639  p :     2.753842
      px      :     1.025764
      py      :     0.911438
      dz2     :     0.044258  d :     0.535062
      dxz     :     0.096270
      dyz     :     0.059112
      dx2y2   :     0.143060
      dxy     :     0.192363

  7 H s       :     0.861457  s :     0.861457
      pz      :     0.033894  p :     0.066655
      px      :     0.018771
      py      :     0.013989

  8 H s       :     0.866572  s :     0.866572
      pz      :     0.038393  p :     0.068938
      px      :     0.009065
      py      :     0.021481

  9 H s       :     0.856587  s :     0.856587
      pz      :     0.029331  p :     0.068747
      px      :     0.019273
      py      :     0.020144



                      *****************************
                      * MAYER POPULATION ANALYSIS *
                      *****************************

  NA   - Mulliken gross atomic population
  ZA   - Total nuclear charge
  QA   - Mulliken gross atomic charge
  VA   - Mayer's total valence
  BVA  - Mayer's bonded valence
  FA   - Mayer's free valence

  ATOM       NA         ZA         QA         VA         BVA        FA
  0 F      9.1345     9.0000    -0.1345     0.9522     0.9522    -0.0000
  1 O      8.1118     8.0000    -0.1118     1.9367     1.9367    -0.0000
  2 O      8.1178     8.0000    -0.1178     1.9074     1.9074    -0.0000
  3 O      8.3086     8.0000    -0.3086     2.0690     2.0690    -0.0000
  4 C      6.0427     6.0000    -0.0427     4.0363     4.0363    -0.0000
  5 C      6.2356     6.0000    -0.2356     3.6288     3.6288    -0.0000
  6 C      5.6678     6.0000     0.3322     4.1525     4.1525    -0.0000
  7 H      0.7790     1.0000     0.2210     0.8790     0.8790    -0.0000
  8 H      0.8182     1.0000     0.1818     0.9243     0.9243    -0.0000
  9 H      0.7841     1.0000     0.2159     0.8801     0.8801    -0.0000

  Mayer bond orders larger than 0.100000
B(  0-F ,  4-C ) :   1.1753 B(  0-F ,  5-C ) :  -0.1391 B(  1-O ,  4-C ) :   1.0938 
B(  1-O ,  6-C ) :   1.0400 B(  2-O ,  5-C ) :   1.0072 B(  2-O ,  6-C ) :   1.0879 
B(  3-O ,  6-C ) :   1.9963 B(  4-C ,  5-C ) :   0.8842 B(  4-C ,  7-H ) :   0.9421 
B(  5-C ,  8-H ) :   0.9450 B(  5-C ,  9-H ) :   0.9831 

-------
TIMINGS
-------

Total SCF time: 0 days 0 hours 0 min 2 sec 

Total time                  ....       2.825 sec
Sum of individual times     ....       2.797 sec  ( 99.0%)

SCF preparation             ....       0.769 sec  ( 27.2%)
Fock matrix formation       ....       1.802 sec  ( 63.8%)
  Startup                   ....       0.010 sec  (  0.5% of F)
  Split-RI-J                ....       0.185 sec  ( 10.3% of F)
  Chain of spheres X        ....       1.218 sec  ( 67.6% of F)
  XC integration            ....       0.349 sec  ( 19.4% of F)
    Basis function eval.    ....       0.068 sec  ( 19.5% of XC)
    Density eval.           ....       0.058 sec  ( 16.5% of XC)
    XC-Functional eval.     ....       0.013 sec  (  3.6% of XC)
    XC-Potential eval.      ....       0.068 sec  ( 19.4% of XC)
Diagonalization             ....       0.000 sec  (  0.0%)
Density matrix formation    ....       0.025 sec  (  0.9%)
Total Energy calculation    ....       0.020 sec  (  0.7%)
Population analysis         ....       0.012 sec  (  0.4%)
Orbital Transformation      ....       0.018 sec  (  0.6%)
Orbital Orthonormalization  ....       0.000 sec  (  0.0%)
DIIS solution               ....       0.103 sec  (  3.6%)
SOSCF solution              ....       0.049 sec  (  1.7%)
Finished LeanSCF after   2.8 sec

Maximum memory used throughout the entire LEANSCF-calculation: 18.0 MB
[ga00:196155] 31 more processes have sent help message help-mpi-btl-openib.txt / error in device init
[ga00:196155] Set MCA parameter "orte_base_help_aggregate" to 0 to see all help / error messages


-------------------------------------------------------------------------------
                          DFT DISPERSION CORRECTION                            
                                                                               
                              DFTD3 V3.1  Rev 1                                
                          USING Becke-Johnson damping                          
-------------------------------------------------------------------------------
The B3LYP functional is recognized
Active option DFTDOPT                   ...         4   

molecular C6(AA) [au] = 975.183494 


            DFT-D V3
 parameters
 s6 scaling factor         :     1.0000 
 a1 scaling factor         :     0.3981 
 s8 scaling factor         :     1.9889 
 a2 scaling factor         :     4.4211 
 ad hoc parameters k1-k3   :    16.0000     1.3333    -4.0000 

 Edisp/kcal,au: -7.577377872552  -0.012075318983 
 E6   /kcal   :  -3.608850807 
 E8   /kcal   :  -3.968527065 
 % E8         :  52.373355691 

-------------------------   ----------------
Dispersion correction           -0.012075319
-------------------------   ----------------


-------------------------   --------------------
FINAL SINGLE POINT ENERGY      -441.589043532763
-------------------------   --------------------

--------------------------------------------------------------------------
WARNING: There was an error initializing an OpenFabrics device.

  Local host:   ga00
  Local device: mlx5_0
--------------------------------------------------------------------------


           ************************************************************
           *        Program running with 32 parallel MPI-processes    *
           *              working on a common directory               *
           ************************************************************
------------------------------------------------------------------------------
                         ORCA SCF GRADIENT CALCULATION
------------------------------------------------------------------------------

Nuc. rep. gradient        (SHARK) ... done (  0.0 sec)
HCore & Overlap gradient  (SHARK) ... done (  0.0 sec)
Split-RIJ-J gradient      (SHARK) ... done (  0.1 sec)
COSX-gradient                     ... done (  0.8 sec)
XC gradient                       ... done (  0.1 sec)
Dispersion correction             ... done (  0.1 sec)

-------------------
DISPERSION GRADIENT
-------------------

   1   F   :   -0.000303303    0.000182821   -0.000131235
   2   O   :    0.000062908    0.000201208    0.000036381
   3   O   :    0.000160190   -0.000167944   -0.000041845
   4   O   :    0.000426383    0.000116991   -0.000071545
   5   C   :   -0.000213141    0.000072169    0.000046448
   6   C   :   -0.000137662   -0.000191031    0.000029394
   7   C   :    0.000412255    0.000097160   -0.000052478
   8   H   :   -0.000192345    0.000123793    0.000134703
   9   H   :   -0.000080390   -0.000221081    0.000124672
  10   H   :   -0.000134896   -0.000214085   -0.000074495

Difference to translation invariance:
           :   -0.0000000000   -0.0000000000   -0.0000000000

Difference to rotation invariance:
           :    0.0000000000    0.0000000000   -0.0000000000

Norm of the Dispersion gradient    ...    0.0009730406
RMS gradient                       ...    0.0001776521
MAX gradient                       ...    0.0004263826

------------------
CARTESIAN GRADIENT
------------------

   1   F   :    0.001721000   -0.001042325    0.002947314
   2   O   :    0.000469852   -0.002045148   -0.001263911
   3   O   :   -0.000707161    0.001841448    0.000934180
   4   O   :   -0.002362668   -0.000854008    0.000435732
   5   C   :   -0.000631515    0.000327066   -0.002615371
   6   C   :    0.000771879    0.000948908   -0.000128221
   7   C   :    0.000382285    0.000600052    0.000169969
   8   H   :    0.000250956   -0.000313769   -0.000259311
   9   H   :   -0.000211482    0.000097679   -0.000812632
  10   H   :    0.000316853    0.000440098    0.000592250

Difference to translation invariance:
           :    0.0000000000    0.0000000000   -0.0000000000

Difference to rotation invariance:
           :    0.0000194517    0.0000179316    0.0001663554

Norm of the Cartesian gradient     ...    0.0064017774
RMS gradient                       ...    0.0011687993
MAX gradient                       ...    0.0029473142

-------
TIMINGS
-------

Total SCF gradient time     ....        1.113 sec

Densities                   ....       0.001 sec  (  0.1%)
One electron gradient       ....       0.017 sec  (  1.5%)
RI-J Coulomb gradient       ....       0.094 sec  (  8.4%)
COSX gradient               ....       0.795 sec  ( 71.4%)
XC gradient                 ....       0.143 sec  ( 12.8%)

Maximum memory used throughout the entire SCFGRAD-calculation: 30.2 MB
[ga00:196317] 31 more processes have sent help message help-mpi-btl-openib.txt / error in device init
[ga00:196317] Set MCA parameter "orte_base_help_aggregate" to 0 to see all help / error messages
------------------------------------------------------------------------------
                         ORCA GEOMETRY RELAXATION STEP
------------------------------------------------------------------------------

Reading the OPT-File                    .... done
Getting information on internals        .... done
Copying old internal coords+grads       .... done
Making the new internal coordinates     .... (2022 redundants) done
Validating the new internal coordinates .... (2022 redundants) done
Calculating the B-matrix                .... done
Calculating the G,G- and P matrices     .... done
Transforming gradient to internals      .... done
Projecting the internal gradient        .... done
Number of atoms                         ....  10
Number of internal coordinates          ....  43
Current Energy                          ....  -441.589043533 Eh
Current gradient norm                   ....     0.006401777 Eh/bohr
Maximum allowed component of the step   ....  0.300
Current trust radius                    ....  0.300
Evaluating the initial hessian          ....  (Almloef) done
Projecting the Hessian                  .... done
Forming the augmented Hessian           .... done
Diagonalizing the augmented Hessian     .... done
Last element of RFO vector              ....  0.999632463
Lowest eigenvalues of augmented Hessian:
 -0.000071981  0.016844051  0.024951524  0.027910235  0.107838923
Length of the computed step             ....  0.027119729
The final length of the internal step   ....  0.027119729
Converting the step to Cartesian space:
 Initial RMS(Int)=    0.0041357199
Transforming coordinates:
 Iter   0:  RMS(Cart)=    0.0043483736 RMS(Int)=    0.0041326716
done
Storing new coordinates                 .... done

                                .--------------------.
          ----------------------|Geometry convergence|-------------------------
          Item                value                   Tolerance       Converged
          ---------------------------------------------------------------------
          RMS gradient        0.0009069372            0.0001000000      NO
          MAX gradient        0.0035650603            0.0003000000      NO
          RMS step            0.0041357199            0.0020000000      NO
          MAX step            0.0085695668            0.0040000000      NO
          ........................................................
          Max(Bonds)      0.0035      Max(Angles)    0.05
          Max(Dihed)        0.49      Max(Improp)    0.00
          ---------------------------------------------------------------------

The optimization has not yet converged - more geometry cycles are needed


    ---------------------------------------------------------------------------
                         Redundant Internal Coordinates
                            (Angstroem and degrees)

        Definition                    Value    dE/dq     Step     New-Value
    ----------------------------------------------------------------------------
     1. B(C   4,O   1)                1.3960 -0.001130  0.0010    1.3970   
     2. B(C   4,F   0)                1.3786 -0.003565  0.0035    1.3821   
     3. B(C   5,O   2)                1.4302 -0.001412  0.0015    1.4317   
     4. B(C   5,C   4)                1.5252 -0.001738  0.0022    1.5274   
     5. B(C   6,O   2)                1.3518 -0.001781  0.0016    1.3534   
     6. B(C   6,O   3)                1.1822 -0.002547  0.0011    1.1833   
     7. B(C   6,O   1)                1.3771 -0.002159  0.0020    1.3792   
     8. B(H   7,C   4)                1.0879 -0.000422  0.0006    1.0885   
     9. B(H   8,C   5)                1.0907 -0.000750  0.0011    1.0918   
    10. B(H   9,C   5)                1.0875 -0.000788  0.0011    1.0886   
    11. A(C   4,O   1,C   6)          110.15  0.000217   -0.05    110.10   
    12. A(C   5,O   2,C   6)          109.88  0.000280   -0.05    109.82   
    13. A(F   0,C   4,O   1)          109.22  0.000009   -0.00    109.21   
    14. A(F   0,C   4,H   7)          107.43 -0.000009    0.01    107.45   
    15. A(O   1,C   4,C   5)          103.89 -0.000137   -0.04    103.85   
    16. A(O   1,C   4,H   7)          109.61  0.000224   -0.03    109.58   
    17. A(C   5,C   4,H   7)          116.13 -0.000145    0.05    116.18   
    18. A(F   0,C   4,C   5)          110.41  0.000067    0.01    110.42   
    19. A(C   4,C   5,H   8)          112.19  0.000227   -0.04    112.15   
    20. A(O   2,C   5,H   8)          109.28  0.000043   -0.02    109.26   
    21. A(C   4,C   5,H   9)          111.73 -0.000095    0.05    111.77   
    22. A(O   2,C   5,C   4)          103.35 -0.000226   -0.02    103.33   
    23. A(H   8,C   5,H   9)          110.56 -0.000132    0.05    110.61   
    24. A(O   2,C   5,H   9)          109.45  0.000189   -0.01    109.44   
    25. A(O   1,C   6,O   2)          109.57 -0.000099    0.02    109.59   
    26. A(O   2,C   6,O   3)          125.99 -0.000101    0.01    126.00   
    27. A(O   1,C   6,O   3)          124.43  0.000201   -0.03    124.40   
    28. D(F   0,C   4,O   1,C   6)   -101.71 -0.000096    0.40   -101.30   
    29. D(C   5,C   4,O   1,C   6)     16.11 -0.000087    0.39     16.50   
    30. D(H   7,C   4,O   1,C   6)    140.84 -0.000220    0.40    141.25   
    31. D(H   8,C   5,C   4,H   7)    -20.18  0.000085   -0.44    -20.61   
    32. D(H   9,C   5,O   2,C   6)    132.27 -0.000148    0.31    132.59   
    33. D(O   2,C   5,C   4,F   0)     99.63  0.000125   -0.43     99.20   
    34. D(H   8,C   5,O   2,C   6)   -106.52 -0.000166    0.35   -106.17   
    35. D(O   2,C   5,C   4,H   7)   -137.78  0.000058   -0.37   -138.15   
    36. D(H   8,C   5,C   4,F   0)   -142.77  0.000152   -0.49   -143.26   
    37. D(H   8,C   5,C   4,O   1)    100.24  0.000185   -0.47     99.77   
    38. D(O   2,C   5,C   4,O   1)    -17.36  0.000157   -0.41    -17.77   
    39. D(C   4,C   5,O   2,C   6)     13.10 -0.000005    0.28     13.38   
    40. D(O   1,C   6,O   2,C   5)     -3.72 -0.000053   -0.05     -3.78   
    41. D(O   3,C   6,O   1,C   4)    172.32  0.000053   -0.22    172.10   
    42. D(O   2,C   6,O   1,C   4)     -8.56  0.000097   -0.23     -8.79   
    43. D(O   3,C   6,O   2,C   5)    175.39 -0.000005   -0.07    175.32   
    ----------------------------------------------------------------------------

Geometry step timings:
Preparation and reading OPT file:      0.000 s (11.377 %)
Internal coordinates            :      0.000 s ( 2.772 %)
B/P matrices and projection     :      0.000 s (23.996 %)
Hessian update/contruction      :      0.000 s ( 8.509 %)
Making the step                 :      0.000 s (18.738 %)
Converting the step to Cartesian:      0.000 s ( 4.015 %)
Storing new data                :      0.000 s ( 1.721 %)
Checking convergence            :      0.000 s ( 0.191 %)
Final printing                  :      0.000 s (27.725 %)
Total time                      :      0.001 s
--------------------------------------------------------------------------
WARNING: There was an error initializing an OpenFabrics device.

  Local host:   ga00
  Local device: mlx5_0
--------------------------------------------------------------------------
[ga00:196477] 31 more processes have sent help message help-mpi-btl-openib.txt / error in device init
[ga00:196477] Set MCA parameter "orte_base_help_aggregate" to 0 to see all help / error messages

Time for energy+gradient        :      8.443 s
Time for complete geometry iter :      9.507 s

         *************************************************************
         *                GEOMETRY OPTIMIZATION CYCLE   2            *
         *************************************************************
---------------------------------
CARTESIAN COORDINATES (ANGSTROEM)
---------------------------------
  F     -1.890991    0.669391   -0.695820
  O      0.050000    0.917104    0.446085
  O      0.557306   -1.171215   -0.159857
  O      2.162223    0.421172   -0.216618
  C     -1.180728    0.256709    0.415629
  C     -0.801561   -1.217425    0.288624
  C      1.047789    0.081228   -0.009846
  H     -1.762692    0.528864    1.294373
  H     -0.846873   -1.738196    1.247130
  H     -1.411173   -1.728633   -0.454402

----------------------------
CARTESIAN COORDINATES (A.U.)
----------------------------
  NO LB      ZA    FRAG     MASS         X           Y           Z
   0 F     9.0000    0    18.998   -3.573455    1.264966   -1.314909
   1 O     8.0000    0    15.999    0.094487    1.733076    0.842979
   2 O     8.0000    0    15.999    1.053155   -2.213276   -0.302086
   3 O     8.0000    0    15.999    4.086009    0.795901   -0.409348
   4 C     6.0000    0    12.011   -2.231253    0.485110    0.785425
   5 C     6.0000    0    12.011   -1.514732   -2.300600    0.545421
   6 C     6.0000    0    12.011    1.980035    0.153499   -0.018605
   7 H     1.0000    0     1.008   -3.331005    0.999408    2.446010
   8 H     1.0000    0     1.008   -1.600358   -3.284715    2.356734
   9 H     1.0000    0     1.008   -2.666730   -3.266642   -0.858694

--------------------------------
INTERNAL COORDINATES (ANGSTROEM)
--------------------------------
 F      0   0   0     0.000000000000     0.00000000     0.00000000
 O      1   0   0     2.265558557434     0.00000000     0.00000000
 O      2   1   0     2.232846042248    87.45576737     0.00000000
 O      3   2   1     2.261565289866    60.62726373   138.35265144
 C      1   2   3     1.382062866587    35.61194477    68.42784730
 C      3   2   1     1.431709202638    74.30815631   314.22312905
 C      4   3   2     1.183333778511    28.95638462   359.39641071
 H      5   1   2     1.088549741886   107.44502874   118.79035958
 H      6   3   2     1.091782667711   109.25638245   251.54992292
 H      6   3   2     1.088598563676   109.44203819   130.30407709

---------------------------
INTERNAL COORDINATES (A.U.)
---------------------------
 F      0   0   0     0.000000000000     0.00000000     0.00000000
 O      1   0   0     4.281285213913     0.00000000     0.00000000
 O      2   1   0     4.219467519059    87.45576737     0.00000000
 O      3   2   1     4.273739031830    60.62726373   138.35265144
 C      1   2   3     2.611720317711    35.61194477    68.42784730
 C      3   2   1     2.705538296401    74.30815631   314.22312905
 C      4   3   2     2.236176766405    28.95638462   359.39641071
 H      5   1   2     2.057060895316   107.44502874   118.79035958
 H      6   3   2     2.063170239736   109.25638245   251.54992292
 H      6   3   2     2.057153155127   109.44203819   130.30407709

--------------------------------------------------------------------------
WARNING: There was an error initializing an OpenFabrics device.

  Local host:   ga00
  Local device: mlx5_0
--------------------------------------------------------------------------


           ************************************************************
           *        Program running with 32 parallel MPI-processes    *
           *              working on a common directory               *
           ************************************************************
------------------------------------------------------------------------------
                   ___                                                        
                  /   \      - P O W E R E D   B Y -                         
                 /     \                                                     
                 |  |  |   _    _      __       _____    __    __             
                 |  |  |  | |  | |    /  \     |  _  \  |  |  /  |          
                  \  \/   | |  | |   /    \    | | | |  |  | /  /          
                 / \  \   | |__| |  /  /\  \   | |_| |  |  |/  /          
                |  |  |   |  __  | /  /__\  \  |    /   |      \           
                |  |  |   | |  | | |   __   |  |    \   |  |\   \          
                \     /   | |  | | |  |  |  |  | |\  \  |  | \   \       
                 \___/    |_|  |_| |__|  |__|  |_| \__\ |__|  \__/        
                                                                              
                      - O R C A' S   B I G   F R I E N D -                    
                                      &                                       
                       - I N T E G R A L  F E E D E R -                       
                                                                              
 v1 FN, 2020, v2 2021, v3 2022-2024                                           
------------------------------------------------------------------------------


----------------------
SHARK INTEGRAL PACKAGE
----------------------

Number of atoms                             ...     10
Number of basis functions                   ...    175
Number of shells                            ...     85
Maximum angular momentum                    ...      2
Integral batch strategy                     ... SHARK/LIBINT Hybrid
RI-J (if used) integral strategy            ... SPLIT-RIJ (Revised 2003 algorithm where possible)
Printlevel                                  ...      1
Contraction scheme used                     ... SEGMENTED contraction
Prescreening option                         ... SCHWARTZ
   Thresh                                   ... 2.500e-11
   Tcut                                     ... 2.500e-12
   Tpresel                                  ... 2.500e-12 
Coulomb Range Separation                    ... NOT USED
Exchange Range Separation                   ... NOT USED
Multipole approximations                    ... NOT USED
Finite Nucleus Model                        ... NOT USED
CABS basis                                  ... NOT available
Auxiliary Coulomb fitting basis             ... AVAILABLE
   # of basis functions in Aux-J            ...    376
   # of shells in Aux-J                     ...    120
   Maximum angular momentum in Aux-J        ...      4
Auxiliary J/K fitting basis                 ... NOT available
Auxiliary Correlation fitting basis         ... NOT available
Auxiliary 'external' fitting basis          ... NOT available

Checking pre-screening integrals            ... done (  0.0 sec) Dimension = 85
Check shell pair data                       ... done (  0.0 sec)
Shell pair information
Shell pair cut-off parameter TPreSel        ...   2.5e-12
Total number of shell pairs                 ...      3655
Shell pairs after pre-screening             ...      3476
Total number of primitive shell pairs       ...     12091
Primitive shell pairs kept                  ...      8824
          la=0 lb=0:   1050 shell pairs
          la=1 lb=0:   1392 shell pairs
          la=1 lb=1:    486 shell pairs
          la=2 lb=0:    310 shell pairs
          la=2 lb=1:    211 shell pairs
          la=2 lb=2:     27 shell pairs

Calculating one electron integrals          ... done (  0.0 sec)
Calculating RI/J V-Matrix + Cholesky decomp.... done (  0.0 sec)
Calculating Nuclear repulsion               ... done (  0.0 sec) ENN=    322.042843106475 Eh

Diagonalization of the overlap matrix:
Smallest eigenvalue                        ... 7.240e-05
Time for diagonalization                   ...    0.002 sec
Threshold for overlap eigenvalues          ... 1.000e-07
Number of eigenvalues below threshold      ... 0
Time for construction of square roots      ...    0.002 sec
Total time needed                          ...    0.005 sec

-------------------
DFT GRID GENERATION
-------------------

General Integration Accuracy     IntAcc      ... 4.388
Radial Grid Type                 RadialGrid  ... OptM3 with GC (2021)
Angular Grid (max. ang.)         AngularGrid ... 4 (Lebedev-302)
Angular grid pruning method      GridPruning ... 4 (adaptive)
Weight generation scheme         WeightScheme... mBecke (2022)
Basis function cutoff            BFCut       ... 1.0000e-11
Integration weight cutoff        WCut        ... 1.0000e-14
Partially contracted basis set               ... off
Rotationally invariant grid construction     ... off
Angular grids for H and He will be reduced by one unit
Diffuse basis detected: some atoms will have their outermost
                        angular grid increased by 1.

Total number of grid points                  ...    54825
Total number of batches                      ...      861
Average number of points per batch           ...       63
Average number of grid points per atom       ...     5482

--------------------
COSX GRID GENERATION
--------------------

GRIDX 1
-------
General Integration Accuracy     IntAcc      ... 3.816
Radial Grid Type                 RadialGrid  ... OptM3 with GC (2021)
Angular Grid (max. ang.)         AngularGrid ... 1 (Lebedev-50)
Angular grid pruning method      GridPruning ... 4 (adaptive)
Weight generation scheme         WeightScheme... mBecke (2022)
Basis function cutoff            BFCut       ... 1.0000e-11
Integration weight cutoff        WCut        ... 1.0000e-14
Partially contracted basis set               ... on
Rotationally invariant grid construction     ... off
Angular grids for H and He will be reduced by one unit
Diffuse basis detected: some atoms will have their outermost
                        angular grid increased by 1.

Total number of grid points                  ...     6920
Total number of batches                      ...       61
Average number of points per batch           ...      113
Average number of grid points per atom       ...      692
UseSFitting                                  ... on

GRIDX 2
-------
General Integration Accuracy     IntAcc      ... 4.020
Radial Grid Type                 RadialGrid  ... OptM3 with GC (2021)
Angular Grid (max. ang.)         AngularGrid ... 2 (Lebedev-110)
Angular grid pruning method      GridPruning ... 4 (adaptive)
Weight generation scheme         WeightScheme... mBecke (2022)
[...]
      dx2y2   :     0.000352
      dxy     :     0.000444

  1 O s       :     3.748076  s :     3.748076
      pz      :     1.670633  p :     4.345846
      px      :     1.148122
      py      :     1.527091
      dz2     :     0.002141  d :     0.015609
      dxz     :     0.002010
      dyz     :     0.002567
      dx2y2   :     0.002280
      dxy     :     0.006612

  2 O s       :     3.768568  s :     3.768568
      pz      :     1.665057  p :     4.333644
      px      :     1.295885
      py      :     1.372702
      dz2     :     0.002097  d :     0.015747
      dxz     :     0.002372
      dyz     :     0.002538
      dx2y2   :     0.005837
      dxy     :     0.002904

  3 O s       :     3.936790  s :     3.936790
      pz      :     1.415616  p :     4.351748
      px      :     1.269320
      py      :     1.666812
      dz2     :     0.002342  d :     0.019042
      dxz     :     0.005189
      dyz     :     0.000680
      dx2y2   :     0.005959
      dxy     :     0.004873

  4 C s       :     3.239089  s :     3.239089
      pz      :     0.914429  p :     2.636291
      px      :     0.829507
      py      :     0.892355
      dz2     :     0.034236  d :     0.166601
      dxz     :     0.046037
      dyz     :     0.022752
      dx2y2   :     0.032924
      dxy     :     0.030653

  5 C s       :     3.279706  s :     3.279706
      pz      :     1.153469  p :     2.868962
      px      :     0.762939
      py      :     0.952553
      dz2     :     0.015491  d :     0.087548
      dxz     :     0.021342
      dyz     :     0.010681
      dx2y2   :     0.024024
      dxy     :     0.016009

  6 C s       :     2.987585  s :     2.987585
      pz      :     0.857408  p :     2.422916
      px      :     0.784915
      py      :     0.780593
      dz2     :     0.018317  d :     0.258614
      dxz     :     0.051009
      dyz     :     0.029641
      dx2y2   :     0.066721
      dxy     :     0.092926

  7 H s       :     0.757113  s :     0.757113
      pz      :     0.010367  p :     0.020178
      px      :     0.005668
      py      :     0.004143

  8 H s       :     0.794990  s :     0.794990
      pz      :     0.011903  p :     0.021286
      px      :     0.002445
      py      :     0.006938

  9 H s       :     0.762115  s :     0.762115
      pz      :     0.008801  p :     0.022014
      px      :     0.006274
      py      :     0.006939



                     *******************************
                     * LOEWDIN POPULATION ANALYSIS *
                     *******************************

----------------------
LOEWDIN ATOMIC CHARGES
----------------------
   0 F :   -0.149055
   1 O :   -0.067432
   2 O :   -0.088696
   3 O :   -0.093235
   4 C :    0.109598
   5 C :    0.074614
   6 C :    0.001801
   7 H :    0.072399
   8 H :    0.065111
   9 H :    0.074894

-------------------------------
LOEWDIN REDUCED ORBITAL CHARGES
-------------------------------
  0 F s       :     3.738462  s :     3.738462
      pz      :     1.685093  p :     5.404187
      px      :     1.824317
      py      :     1.894778
      dz2     :     0.001817  d :     0.006406
      dxz     :     0.002274
      dyz     :     0.001307
      dx2y2   :     0.000413
      dxy     :     0.000595

  1 O s       :     3.421402  s :     3.421402
      pz      :     1.694700  p :     4.620310
      px      :     1.306486
      py      :     1.619124
      dz2     :     0.003304  d :     0.025720
      dxz     :     0.003722
      dyz     :     0.002985
      dx2y2   :     0.003919
      dxy     :     0.011790

  2 O s       :     3.424196  s :     3.424196
      pz      :     1.717092  p :     4.638837
      px      :     1.418648
      py      :     1.503096
      dz2     :     0.003369  d :     0.025662
      dxz     :     0.003800
      dyz     :     0.002994
      dx2y2   :     0.010193
      dxy     :     0.005306

  3 O s       :     3.481789  s :     3.481789
      pz      :     1.432446  p :     4.584146
      px      :     1.484480
      py      :     1.667220
      dz2     :     0.003919  d :     0.027300
      dxz     :     0.006090
      dyz     :     0.000778
      dx2y2   :     0.009729
      dxy     :     0.006784

  4 C s       :     2.752812  s :     2.752812
      pz      :     0.900833  p :     2.796897
      px      :     0.888436
      py      :     1.007629
      dz2     :     0.071338  d :     0.340692
      dxz     :     0.093538
      dyz     :     0.041318
      dx2y2   :     0.068365
      dxy     :     0.066134

  5 C s       :     2.768293  s :     2.768293
      pz      :     1.064209  p :     2.970787
      px      :     0.853372
      py      :     1.053205
      dz2     :     0.030963  d :     0.186307
      dxz     :     0.043641
      dyz     :     0.023485
      dx2y2   :     0.055833
      dxy     :     0.032384

  6 C s       :     2.714893  s :     2.714893
      pz      :     0.817100  p :     2.751718
      px      :     1.024478
      py      :     0.910140
      dz2     :     0.044780  d :     0.531588
      dxz     :     0.097108
      dyz     :     0.058568
      dx2y2   :     0.141312
      dxy     :     0.189820

  7 H s       :     0.860926  s :     0.860926
      pz      :     0.033252  p :     0.066675
      px      :     0.019432
      py      :     0.013991

  8 H s       :     0.866058  s :     0.866058
      pz      :     0.038583  p :     0.068831
      px      :     0.009043
      py      :     0.021204

  9 H s       :     0.856473  s :     0.856473
      pz      :     0.028719  p :     0.068633
      px      :     0.019599
      py      :     0.020314



                      *****************************
                      * MAYER POPULATION ANALYSIS *
                      *****************************

  NA   - Mulliken gross atomic population
  ZA   - Total nuclear charge
  QA   - Mulliken gross atomic charge
  VA   - Mayer's total valence
  BVA  - Mayer's bonded valence
  FA   - Mayer's free valence

  ATOM       NA         ZA         QA         VA         BVA        FA
  0 F      9.1399     9.0000    -0.1399     0.9521     0.9521    -0.0000
  1 O      8.1095     8.0000    -0.1095     1.9317     1.9317    -0.0000
  2 O      8.1180     8.0000    -0.1180     1.9087     1.9087    -0.0000
  3 O      8.3076     8.0000    -0.3076     2.0721     2.0721    -0.0000
  4 C      6.0420     6.0000    -0.0420     4.0303     4.0303    -0.0000
  5 C      6.2362     6.0000    -0.2362     3.6230     3.6230    -0.0000
  6 C      5.6691     6.0000     0.3309     4.1517     4.1517    -0.0000
  7 H      0.7773     1.0000     0.2227     0.8782     0.8782    -0.0000
  8 H      0.8163     1.0000     0.1837     0.9240     0.9240    -0.0000
  9 H      0.7841     1.0000     0.2159     0.8827     0.8827    -0.0000

  Mayer bond orders larger than 0.100000
B(  0-F ,  4-C ) :   1.1763 B(  0-F ,  5-C ) :  -0.1424 B(  1-O ,  4-C ) :   1.0911 
B(  1-O ,  6-C ) :   1.0359 B(  2-O ,  5-C ) :   1.0048 B(  2-O ,  6-C ) :   1.0888 
B(  3-O ,  6-C ) :   1.9985 B(  4-C ,  5-C ) :   0.8828 B(  4-C ,  7-H ) :   0.9404 
B(  5-C ,  8-H ) :   0.9443 B(  5-C ,  9-H ) :   0.9833 

-------
TIMINGS
-------

Total SCF time: 0 days 0 hours 0 min 1 sec 

Total time                  ....       1.815 sec
Sum of individual times     ....       1.789 sec  ( 98.6%)

SCF preparation             ....       0.778 sec  ( 42.9%)
Fock matrix formation       ....       0.915 sec  ( 50.4%)
  Startup                   ....       0.005 sec  (  0.6% of F)
  Split-RI-J                ....       0.077 sec  (  8.4% of F)
  Chain of spheres X        ....       0.676 sec  ( 73.8% of F)
  XC integration            ....       0.143 sec  ( 15.6% of F)
    XC Preparation          ....       0.000 sec  (  0.0% of XC)
    Basis function eval.    ....       0.028 sec  ( 19.9% of XC)
    Density eval.           ....       0.025 sec  ( 17.8% of XC)
    XC-Functional eval.     ....       0.005 sec  (  3.7% of XC)
    XC-Potential eval.      ....       0.028 sec  ( 19.4% of XC)
Diagonalization             ....       0.000 sec  (  0.0%)
Density matrix formation    ....       0.009 sec  (  0.5%)
Total Energy calculation    ....       0.010 sec  (  0.5%)
Population analysis         ....       0.018 sec  (  1.0%)
Orbital Transformation      ....       0.009 sec  (  0.5%)
Orbital Orthonormalization  ....       0.000 sec  (  0.0%)
DIIS solution               ....       0.012 sec  (  0.7%)
SOSCF solution              ....       0.037 sec  (  2.0%)
Finished LeanSCF after   1.8 sec

Maximum memory used throughout the entire LEANSCF-calculation: 18.7 MB
[ga00:200797] 31 more processes have sent help message help-mpi-btl-openib.txt / error in device init
[ga00:200797] Set MCA parameter "orte_base_help_aggregate" to 0 to see all help / error messages


-------------------------------------------------------------------------------
                          DFT DISPERSION CORRECTION                            
                                                                               
                              DFTD3 V3.1  Rev 1                                
                          USING Becke-Johnson damping                          
-------------------------------------------------------------------------------
The B3LYP functional is recognized
Active option DFTDOPT                   ...         4   

molecular C6(AA) [au] = 975.253715 


            DFT-D V3
 parameters
 s6 scaling factor         :     1.0000 
 a1 scaling factor         :     0.3981 
 s8 scaling factor         :     1.9889 
 a2 scaling factor         :     4.4211 
 ad hoc parameters k1-k3   :    16.0000     1.3333    -4.0000 

 Edisp/kcal,au: -7.578144914779  -0.012076541343 
 E6   /kcal   :  -3.608838886 
 E8   /kcal   :  -3.969306029 
 % E8         :  52.378333662 

-------------------------   ----------------
Dispersion correction           -0.012076541
-------------------------   ----------------


-------------------------   --------------------
FINAL SINGLE POINT ENERGY      -441.589119513644
-------------------------   --------------------

                                *** OPTIMIZATION RUN DONE ***

--------------------------------------------------------------------------
WARNING: There was an error initializing an OpenFabrics device.

  Local host:   ga00
  Local device: mlx5_0
--------------------------------------------------------------------------


           ************************************************************
           *        Program running with 32 parallel MPI-processes    *
           *              working on a common directory               *
           ************************************************************

------------------------------------------------------------------------------
                              ORCA PROPERTY CALCULATIONS
------------------------------------------------------------------------------

GBWName                                 ... input.gbw
Number of atoms                         ...     10
Number of basis functions               ...    175
Max core memory                         ...   5000 MB

Electric properties:
Dipole moment                           ... YES
Quadrupole moment                       ...  NO
Static polarizability (Dipole/Dipole)   ...  NO
Static polarizability (Dipole/Quad.)    ...  NO
Static polarizability (Quad./Quad.)     ...  NO
Static polarizability (Velocity)        ...  NO

Atomic electric properties:
Dipole moment                           ...  NO
Quadrupole moment                       ...  NO
Static polarizability                   ...  NO

Choice of electric origin               ... Center of mass
Position of electric origin             ...    -0.119994     0.033661    -0.032413

General magnetic properties:
Magnetizability                         ...  NO

EPR properties:
g-Tensor (aka g-matrix)                 ...  NO
Zero-Field splitting spin-orbit         ...  NO
Zero-field splitting spin-spin          ...  NO
Hyperfine couplings                     ...  NO (   0 nuclei)
Quadrupole couplings                    ...  NO (   0 nuclei)
Contact density                         ...  NO (   0 nuclei)

NMR properties:
Chemical shifts                         ...  NO (   0 nuclei)
Spin-rotation constants                 ...  NO (   0 nuclei)
Spin-spin couplings                     ...  NO (   0 nuclei,    0 pairs)

Choice of magnetic origin               ... GIAO
Position of magnetic origin             ...     0.000000     0.000000     0.000000

Properties with geometric perturbations:
SCF Hessian                             ...  NO
IR spectrum                             ...  NO
VCD spectrum                            ...  NO
X-ray spectroscopy properties:
SCF XES/XAS/RIXS spectra                ...  NO


-------------
DIPOLE MOMENT
-------------

Method             : SCF
Type of density    : Electron Density
Multiplicity       :   1
Irrep              :   0
Energy             :  -441.5770429723017969 Eh
Relativity type    : 
Basis              : AO
                                X                 Y                 Z
Electronic contribution:      0.389464384       2.508747700      -1.763155642
Nuclear contribution   :     -1.879004990      -3.412080847       2.654000989
                        -----------------------------------------
Total Dipole Moment    :     -1.489540606      -0.903333147       0.890845347
                        -----------------------------------------
Magnitude (a.u.)       :      1.956616320
Magnitude (Debye)      :      4.973323450



--------------------
Rotational spectrum 
--------------------
 
Rotational constants in cm-1:             0.183589             0.080242             0.064543 
Rotational constants in MHz :          5503.870834          2405.587506          1934.942531 

Dipole components along the rotational axes: 
x,y,z [a.u.] :     1.408963    -1.052263     0.857855 
x,y,z [Debye]:     3.581298    -2.674639     2.180494 

 

Dipole moment calculation done in   0.0 sec 

Maximum memory used throughout the entire PROP-calculation: 9.1 MB
[ga00:201107] 31 more processes have sent help message help-mpi-btl-openib.txt / error in device init
[ga00:201107] Set MCA parameter "orte_base_help_aggregate" to 0 to see all help / error messages
--------------------------------------------------------------------------
WARNING: There was an error initializing an OpenFabrics device.

  Local host:   ga00
  Local device: mlx5_0
--------------------------------------------------------------------------
[ga00:201253] 31 more processes have sent help message help-mpi-btl-openib.txt / error in device init
[ga00:201253] Set MCA parameter "orte_base_help_aggregate" to 0 to see all help / error messages

--------------------------------
SUGGESTED CITATIONS FOR THIS RUN
--------------------------------

Below you find a list of papers that are relevant to this ORCA run
We neither can nor want to force you to cite these papers, but we appreciate if you do
You receive ORCA, which is the product of decades of hard work by many enthusiastic individuals, for free
The only thing we kindly ask in return is that you cite our papers,
We deeply appreciate it, if you show your appreciation for ORCA by not just citing the generic ORCA reference.

Please note that relegating all ORCA citations to the supporting information does *not* help us.
SI sections are not indexed - citations you put there will not count into any citation statistics
But we need these citations in order to attract the funding resources that allow us to do what we are doing

Therefore, if you are a happy ORCA user, please consider citing a few of the papers listed below in the main body of your paper

In addition to the list printed below, the program has created the file input.bibtex that contains the list in bibtex format
You can import this file easily into all common literature databanks and citation aid programs


List of essential papers. We consider these as the minimum necessary citations

  1. Neese,F.
     Software update: the ORCA program system, version 5.0
     WIRES Comput. Molec. Sci., 2022 12(1)e1606
     doi.org/10.1002/wcms.1606

List of papers to cite with high priority. The work reported in these papers was absolutely
necessary for this run to complete.
Our perspective: the developers of density functionals and basis sets usually get cited in chemistry papers
Good! But without the algorithms to do something with them, the functionals or basis sets would not do anything.
Hence, in our opinion, the algorithm design and method developments papers are equally worthy of getting cited

  1. Neese,F.
     An improvement of the resolution of the identity approximation for the formation of the Coulomb matrix
     J. Comp. Chem., 2003 24(14)1740-1747
     doi.org/10.1002/jcc.10318
  2. Neese,F.; Wennmohs,F.; Hansen,A.; Becker,U.
     Efficient, approximate and parallel Hartree-Fock and hybrid DFT calculations. A 'chain-of-spheres' algorithm for the Hartree-Fock exchange
     Chem. Phys., 2009 356(1-3)98-109
     doi.org/10.1016/j.chemphys.2008.10.036
  3. Helmich-Paris,B.; de Souza,B.; Neese,F.; Izsák,R.
     An improved chain of spheres for exchange algorithm
     J. Chem. Phys., 2021 155 104109
     doi.org/doi: 10.1063/5.0058766.
  4. Neese,F.
     The SHARK Integral Generation and Digestion System
     J. Comp. Chem., 2022  1-16
     doi.org/10.1002/jcc.26942
  5. Grimme,S.; Antony,J.; Ehrlich,S.; Krieg,H.
     A consistent and accurate ab initio parametrization of density functional dispersion correction (DFT-D) for the 94 elements H-Pu
     J. Chem. Phys., 2010 132 154104
     doi.org/10.1063/1.3382344
  6. Grimme,S.; Ehrlich,S.; Goerigk,L.
     Effect of the damping function in dispersion corrected density functional theory
     J. Comput. Chem., 2011 32(7)1456-1465
     doi.org/10.1002/jcc.21759

List of suggested additional citations. These are papers that are important in the 'surrounding' of 
of this run, or papers that preceded the highly important papers. If you like your results we are grateful for a citation.

  1. Izsak,R.; Neese,F.
     An overlap fitted chain of spheres exchange method
     J. Chem. Phys., 2011 135 144105
     doi.org/10.1063/1.3646921
  2. Izsak,R.; Hansen,A.; Neese,F.
     The resolution of identity and chain of spheres approximations for the LPNO-CCSD singles Fock term
     Molec. Phys., 2012 110 2413-2417
     doi.org/10.1080/00268976.2012.687466
  3. Neese,F.
     The ORCA program system
     WIRES Comput. Molec. Sci., 2012 2(1)73-78
     doi.org/10.1002/wcms.81
  4. Izsak,R.; Neese,F.; Klopper,W.
     Robust fitting techniques in the chain of spheres approximation to the Fock exchange: The role of the complementary space
     J. Chem. Phys., 2013 139 
     doi.org/10.1063/1.4819264
  5. Neese,F.
     Software update: the ORCA program system, version 4.0
     WIRES Comput. Molec. Sci., 2018 8(1)1-6
     doi.org/10.1002/wcms.1327
  6. Neese,F.; Wennmohs,F.; Becker,U.; Riplinger,C.
     The ORCA quantum chemistry program package
     J. Chem. Phys., 2020 152 Art. No. L224108
     doi.org/10.1063/5.0004608

List of optional additional citations

  1. Neese,F.
     Approximate second-order SCF convergence for spin unrestricted wavefunctions
     Chem. Phys. Lett., 2000 325(1-3)93-98
     doi.org/10.1016/s0009-2614(00)00662-x

Timings for individual modules:

Sum of individual times          ...       53.924 sec (=   0.899 min)
Startup calculation              ...       11.414 sec (=   0.190 min)  21.2 %
SCF iterations                   ...       27.159 sec (=   0.453 min)  50.4 %
Property calculations            ...        1.237 sec (=   0.021 min)   2.3 %
SCF Gradient evaluation          ...       14.102 sec (=   0.235 min)  26.2 %
Geometry relaxation              ...        0.013 sec (=   0.000 min)   0.0 %
                             ****ORCA TERMINATED NORMALLY****
TOTAL RUN TIME: 0 days 0 hours 1 minutes 2 seconds 188 msec
