[Molden Format]
[Title]
 Molden file created by orca_2mkl for BaseName=input

[Atoms] AU
O    1   8          1.2609848523        -0.8609812031         0.0007164667 
O    2   8         -2.7840084296        -1.4811805086         0.0004021056 
O    3   8         -1.3343094337         2.5486999766        -0.0014052609 
C    4   6          3.4403695610         0.7963319897        -0.0003996502 
C    5   6          5.7682929141        -0.8636865301        -0.0004918361 
C    6   6         -0.9821907748         0.2944847852         0.0004816513 
C    7   6         -5.3305865991        -0.5341681057        -0.0010487703 
H    8   1          3.3483214685         2.0057872941        -1.6703074733 
H    9   1          3.3492354969         2.0068059318         1.6688255799 
H   10   1          7.4616039319         0.3195785998        -0.0007270659 
H   11   1          5.8150392740        -2.0684210967         1.6743539369 
H   12   1          5.8147700677        -2.0687568034        -1.6751003550 
H   13   1         -5.6769896304         0.6078376830         1.6795859491 
H   14   1         -6.5284223466        -2.2040854735        -0.0008262537 
H   15   1         -5.6756229867         0.6064012187        -1.6829407369 
[GTO]
  1 0
s   6 1.0 
     8588.5000000000         1.2050128859
     1297.2300000000         2.2162047744
      299.2960000000         3.6274524983
       87.3771000000         4.8884523076
       25.6789000000         4.8357205177
        3.7400400000         0.5382294948
s   3 1.0 
       42.1175000000         1.3419577961
        9.6283700000         3.5871143115
        2.8533200000        -0.0051234679
p   3 1.0 
       42.1175000000         5.5840175343
        9.6283700000         5.7333656931
        2.8533200000         4.3329547351
s   1 1.0 
        0.9056610000         0.6616591794
p   1 1.0 
        0.9056610000         1.2593521004
s   1 1.0 
        0.2556110000         0.2562092156
p   1 1.0 
        0.2556110000         0.2590684413
s   1 1.0 
        0.0845000000         0.1116998588
p   1 1.0 
        0.0845000000         0.0649398041
d   1 1.0 
        1.2920000000         4.4635405283

  2 0
s   6 1.0 
     8588.5000000000         1.2050128859
     1297.2300000000         2.2162047744
      299.2960000000         3.6274524983
       87.3771000000         4.8884523076
       25.6789000000         4.8357205177
        3.7400400000         0.5382294948
s   3 1.0 
       42.1175000000         1.3419577961
        9.6283700000         3.5871143115
        2.8533200000        -0.0051234679
p   3 1.0 
       42.1175000000         5.5840175343
        9.6283700000         5.7333656931
        2.8533200000         4.3329547351
s   1 1.0 
        0.9056610000         0.6616591794
p   1 1.0 
        0.9056610000         1.2593521004
s   1 1.0 
        0.2556110000         0.2562092156
p   1 1.0 
        0.2556110000         0.2590684413
s   1 1.0 
        0.0845000000         0.1116998588
p   1 1.0 
        0.0845000000         0.0649398041
d   1 1.0 
        1.2920000000         4.4635405283

  3 0
s   6 1.0 
     8588.5000000000         1.2050128859
     1297.2300000000         2.2162047744
      299.2960000000         3.6274524983
       87.3771000000         4.8884523076
       25.6789000000         4.8357205177
        3.7400400000         0.5382294948
s   3 1.0 
       42.1175000000         1.3419577961
        9.6283700000         3.5871143115
        2.8533200000        -0.0051234679
p   3 1.0 
       42.1175000000         5.5840175343
        9.6283700000         5.7333656931
        2.8533200000         4.3329547351
s   1 1.0 
        0.9056610000         0.6616591794
p   1 1.0 
        0.9056610000         1.2593521004
s   1 1.0 
        0.2556110000         0.2562092156
p   1 1.0 
        0.2556110000         0.2590684413
s   1 1.0 
        0.0845000000         0.1116998588
p   1 1.0 
        0.0845000000         0.0649398041
d   1 1.0 
        1.2920000000         4.4635405283

  4 0
s   6 1.0 
     4563.2400000000         0.7782017567
      682.0240000000         1.4486948054
      154.9730000000         2.3830893322
       44.4553000000         3.2000890123
       13.0290000000         3.0130044376
        1.8277300000         0.2475986326
s   3 1.0 
       20.9642000000         0.8006285193
        4.8033100000         2.1274198914
        1.4593300000        -0.0028679106
p   3 1.0 
       20.9642000000         2.5735922152
        4.8033100000         2.4082482228
        1.4593300000         1.8652813335
s   1 1.0 
        0.4834560000         0.4132166458
p   1 1.0 
        0.4834560000         0.5746273343
s   1 1.0 
        0.1455850000         0.1679761277
p   1 1.0 
        0.1455850000         0.1281846070
s   1 1.0 
        0.0438000000         0.0682363322
p   1 1.0 
        0.0438000000         0.0285616127
d   1 1.0 
        0.6260000000         1.2559581449

  5 0
s   6 1.0 
     4563.2400000000         0.7782017567
      682.0240000000         1.4486948054
      154.9730000000         2.3830893322
       44.4553000000         3.2000890123
       13.0290000000         3.0130044376
        1.8277300000         0.2475986326
s   3 1.0 
       20.9642000000         0.8006285193
        4.8033100000         2.1274198914
        1.4593300000        -0.0028679106
p   3 1.0 
       20.9642000000         2.5735922152
        4.8033100000         2.4082482228
        1.4593300000         1.8652813335
s   1 1.0 
        0.4834560000         0.4132166458
p   1 1.0 
        0.4834560000         0.5746273343
s   1 1.0 
        0.1455850000         0.1679761277
p   1 1.0 
        0.1455850000         0.1281846070
s   1 1.0 
        0.0438000000         0.0682363322
p   1 1.0 
        0.0438000000         0.0285616127
d   1 1.0 
        0.6260000000         1.2559581449

  6 0
s   6 1.0 
     4563.2400000000         0.7782017567
      682.0240000000         1.4486948054
      154.9730000000         2.3830893322
       44.4553000000         3.2000890123
       13.0290000000         3.0130044376
        1.8277300000         0.2475986326
s   3 1.0 
       20.9642000000         0.8006285193
        4.8033100000         2.1274198914
        1.4593300000        -0.0028679106
p   3 1.0 
       20.9642000000         2.5735922152
        4.8033100000         2.4082482228
        1.4593300000         1.8652813335
s   1 1.0 
        0.4834560000         0.4132166458
p   1 1.0 
        0.4834560000         0.5746273343
s   1 1.0 
        0.1455850000         0.1679761277
p   1 1.0 
        0.1455850000         0.1281846070
s   1 1.0 
        0.0438000000         0.0682363322
p   1 1.0 
        0.0438000000         0.0285616127
d   1 1.0 
        0.6260000000         1.2559581449

  7 0
s   6 1.0 
     4563.2400000000         0.7782017567
      682.0240000000         1.4486948054
      154.9730000000         2.3830893322
       44.4553000000         3.2000890123
       13.0290000000         3.0130044376
        1.8277300000         0.2475986326
s   3 1.0 
       20.9642000000         0.8006285193
        4.8033100000         2.1274198914
        1.4593300000        -0.0028679106
p   3 1.0 
       20.9642000000         2.5735922152
        4.8033100000         2.4082482228
        1.4593300000         1.8652813335
s   1 1.0 
        0.4834560000         0.4132166458
p   1 1.0 
        0.4834560000         0.5746273343
s   1 1.0 
        0.1455850000         0.1679761277
p   1 1.0 
        0.1455850000         0.1281846070
s   1 1.0 
        0.0438000000         0.0682363322
p   1 1.0 
        0.0438000000         0.0285616127
d   1 1.0 
        0.6260000000         1.2559581449

  8 0
s   3 1.0 
       33.8650000000         0.2550693200
        5.0947900000         0.4601086622
        1.1587900000         0.6783214465
s   1 1.0 
        0.3258400000         0.3073713539
s   1 1.0 
        0.1027410000         0.1293355558
s   1 1.0 
        0.0360000000         0.0589029394
p   1 1.0 
        0.7500000000         0.9948707607

  9 0
s   3 1.0 
       33.8650000000         0.2550693200
        5.0947900000         0.4601086622
        1.1587900000         0.6783214465
s   1 1.0 
        0.3258400000         0.3073713539
s   1 1.0 
        0.1027410000         0.1293355558
s   1 1.0 
        0.0360000000         0.0589029394
p   1 1.0 
        0.7500000000         0.9948707607

 10 0
s   3 1.0 
       33.8650000000         0.2550693200
        5.0947900000         0.4601086622
        1.1587900000         0.6783214465
s   1 1.0 
        0.3258400000         0.3073713539
s   1 1.0 
        0.1027410000         0.1293355558
s   1 1.0 
        0.0360000000         0.0589029394
p   1 1.0 
        0.7500000000         0.9948707607

 11 0
s   3 1.0 
       33.8650000000         0.2550693200
        5.0947900000         0.4601086622
        1.1587900000         0.6783214465
s   1 1.0 
        0.3258400000         0.3073713539
s   1 1.0 
        0.1027410000         0.1293355558
s   1 1.0 
        0.0360000000         0.0589029394
p   1 1.0 
        0.7500000000         0.9948707607

 12 0
s   3 1.0 
       33.8650000000         0.2550693200
        5.0947900000         0.4601086622
        1.1587900000         0.6783214465
s   1 1.0 
        0.3258400000         0.3073713539
s   1 1.0 
        0.1027410000         0.1293355558
s   1 1.0 
        0.0360000000         0.0589029394
p   1 1.0 
        0.7500000000         0.9948707607

 13 0
s   3 1.0 
       33.8650000000         0.2550693200
        5.0947900000         0.4601086622
        1.1587900000         0.6783214465
s   1 1.0 
        0.3258400000         0.3073713539
s   1 1.0 
        0.1027410000         0.1293355558
s   1 1.0 
        0.0360000000         0.0589029394
p   1 1.0 
        0.7500000000         0.9948707607

 14 0
s   3 1.0 
       33.8650000000         0.2550693200
        5.0947900000         0.4601086622
        1.1587900000         0.6783214465
s   1 1.0 
        0.3258400000         0.3073713539
s   1 1.0 
        0.1027410000         0.1293355558
s   1 1.0 
        0.0360000000         0.0589029394
p   1 1.0 
        0.7500000000         0.9948707607

 15 0
s   3 1.0 
       33.8650000000         0.2550693200
        5.0947900000         0.4601086622
        1.1587900000         0.6783214465
s   1 1.0 
        0.3258400000         0.3073713539
s   1 1.0 
        0.1027410000         0.1293355558
s   1 1.0 
        0.0360000000         0.0589029394
p   1 1.0 
        0.7500000000         0.9948707607

[5D]
[7F]
[9G]
[MO]
 Sym=     1a
 Ene= -1.91728297236095E+01
 Spin= Alpha
 Occup= 2.000000
  1      -0.001384156002
  2      -0.001166190014
  3      -0.000048045891
  4       0.000008633887
  5       0.000000014512
  6      -0.000010618864
  7       0.000210579075
  8      -0.000042334574
  9      -0.000000046014
 10      -0.001369650870
 11       0.000558917068
 12      -0.000237371825
 13       0.000000265083
 14      -0.008591885846
 15       0.007617976407
 16      -0.000083110806
 17      -0.000000898414
 18       0.000030865341
 19       0.000000005686
 20       0.000000011201
 21      -0.000083674512
 22       0.000057007367
 23       0.551333640011
 24       0.469674027174
 25      -0.000241501150
 26       0.001307181625
 27      -0.000000411771
 28       0.014163552064
 29       0.000279784519
 30       0.000030250328
 31       0.000000092090
 32      -0.013433319717
 33      -0.000587829046
 34      -0.001928522098
 35       0.000000431226
 36       0.006367242344
 37       0.005044867477
 38      -0.000199391056
 39       0.000001520922
 40       0.000022547337
 41      -0.000000040239
 42       0.000000068727
 43       0.000001412440
 44       0.000075466191
 45      -0.000068001821
 46      -0.000034869867
 47       0.000001067135
 48      -0.000038989742
 49       0.000000074603
 50      -0.000159189904
 51      -0.000033395741
 52       0.000173735001
 53      -0.000000321785
 54       0.000944852190
 55       0.000793017528
 56       0.000151079532
 57       0.000000895734
 58       0.001302514825
 59      -0.000517058274
 60      -0.000659821026
 61       0.000000106112
 62       0.000048076890
 63       0.000000155206
 64       0.000000056420
 65       0.000102036637
 66      -0.000142792973
 67      -0.000000731438
 68       0.000003716015
 69      -0.000017142785
 70       0.000003414654
 71       0.000000007846
 72      -0.000139765090
 73       0.000149533083
 74      -0.000010430152
 75       0.000000000688
 76       0.000309438925
 77      -0.001680440273
 78       0.000723114308
 79       0.000000229850
 80      -0.009372364006
 81       0.008497144927
 82      -0.000914367003
 83      -0.000005871243
 84       0.000000399877
 85      -0.000000009469
 86       0.000000146988
 87       0.000073299052
 88       0.000006095723
 89       0.000002515042
 90      -0.000013415139
 91       0.000028852586
 92       0.000003565764
 93      -0.000000012185
 94       0.000153191646
 95      -0.000140838057
 96       0.000007517195
 97       0.000000029810
 98       0.000173421660
 99       0.000979220313
100       0.000753578440
101      -0.000000590832
102      -0.006187820523
103       0.001243898886
104      -0.001162715783
105       0.000003380321
106      -0.000013884992
107       0.000000007490
108       0.000000034625
109      -0.000006653419
110       0.000037668134
111       0.000006579210
112      -0.000024722955
113      -0.000151570971
114      -0.000211274638
115       0.000000092934
116       0.000249245789
117      -0.000095538292
118       0.000244367853
119      -0.000000438539
120       0.006359916263
121      -0.000855136492
122      -0.005028082871
123       0.000001091235
124       0.005112273294
125       0.014758065769
126       0.003021583700
127       0.000001996888
128      -0.000116888311
129       0.000000290868
130      -0.000000046338
131       0.000185347820
132      -0.000451876559
133       0.000020447327
134      -0.000079858991
135       0.000106813612
136      -0.000115132267
137       0.000000077435
138       0.000071002204
139       0.000147304656
140       0.000281008967
141       0.000000023641
142       0.005481960581
143       0.001862228377
144      -0.000734440275
145       0.000001353172
146       0.008134414051
147       0.002947278614
148       0.000672596955
149       0.000001762778
150       0.000166455091
151      -0.000000145984
152       0.000000191890
153       0.000004153473
154       0.000117341909
155       0.000040836915
156      -0.000458861872
157       0.000232036480
158       0.000234603276
159       0.000038176703
160      -0.000010122873
161      -0.000049310635
162       0.000040926693
163      -0.000459722356
164       0.000234270862
165       0.000236281009
166       0.000038224498
167      -0.000010023017
168       0.000049306202
169       0.000027877248
170      -0.000298998476
171      -0.000643699452
172      -0.000770876982
173      -0.000004646670
174       0.000040339630
175       0.000000038916
176      -0.000010564659
177       0.000170920329
178      -0.000252644500
179       0.000091867608
180      -0.000005102898
181      -0.000026150081
182      -0.000038820516
183      -0.000010512871
184       0.000170403809
185      -0.000251134554
186       0.000095852631
187      -0.000005177426
188      -0.000026170858
189       0.000038825337
190       0.000062449004
191      -0.001177294167
192       0.000510536017
193       0.000281614463
194      -0.000218260742
195       0.000183456335
196       0.000217804310
197       0.000073914549
198      -0.000868174760
199       0.000543161082
200       0.000560161859
201      -0.000122158966
202      -0.000098202132
203      -0.000000054190
204       0.000062413169
205      -0.001176954288
206       0.000510000214
207       0.000282162217
208      -0.000218152408
209       0.000183196668
210      -0.000218082461
 Sym=     1a
 Ene= -1.91707239639323E+01
 Spin= Alpha
 Occup= 2.000000
  1      -0.551328179435
  2      -0.469677310307
  3       0.000215886885
  4      -0.001276490679
  5       0.000000401564
  6      -0.014171394575
  7       0.000211590226
  8       0.000013773521
  9      -0.000000008508
 10       0.013441912193
 11      -0.000739394972
 12       0.001861843404
 13      -0.000000807618
 14      -0.002319730661
 15      -0.000492981475
 16       0.001464725384
 17      -0.000000006368
 18      -0.000024102331
 19      -0.000000019267
 20      -0.000000077792
 21      -0.000054982423
 22       0.000083705072
 23      -0.001387133995
 24      -0.001195353088
 25      -0.000037951004
 26      -0.000039083963
 27      -0.000000014408
 28      -0.000050493605
 29       0.000165627633
 30       0.000141995663
 31       0.000000056423
 32       0.001182348616
 33       0.000565679926
 34       0.000201627874
 35      -0.000000077156
 36       0.003928386077
 37       0.001970707393
 38       0.000839725124
 39       0.000000814339
 40      -0.000032293130
 41       0.000000040048
 42       0.000000006616
 43       0.000038933273
 44       0.000099058049
 45       0.000066011968
 46       0.000036400886
 47      -0.000005501457
 48       0.000039501215
 49      -0.000000056635
 50       0.000123207229
 51      -0.000003343659
 52      -0.000183302708
 53       0.000000251403
 54      -0.000650384990
 55       0.000975594326
 56       0.000070469284
 57      -0.000000509217
 58      -0.001518823390
 59      -0.000847085460
 60       0.000439909228
 61      -0.000000563231
 62      -0.000043685071
 63       0.000000188514
 64      -0.000000025581
 65      -0.000001247624
 66      -0.000184565173
 67      -0.000018478978
 68       0.000070801125
 69       0.000047207792
 70       0.000142839470
 71      -0.000000069073
 72       0.000081776778
 73       0.000422313849
 74      -0.000304887539
 75      -0.000000001323
 76      -0.006199357995
 77       0.000783418702
 78       0.001649147342
 79      -0.000001150228
 80      -0.001204664232
 81       0.000931653201
 82      -0.000197833103
 83      -0.000002096218
 84      -0.000153496055
 85      -0.000000093661
 86      -0.000000173928
 87      -0.000060959364
 88       0.000065623039
 89      -0.000002753435
 90       0.000011757992
 91       0.000024906927
 92      -0.000023256295
 93       0.000000012850
 94      -0.000236350612
 95      -0.000152941410
 96       0.000111009666
 97      -0.000000039821
 98       0.002671100296
 99      -0.001223342248
100       0.000303648992
101       0.000000536722
102       0.000854699690
103      -0.000186501827
104      -0.000753869287
105       0.000001038212
106       0.000009201737
107       0.000000027701
108       0.000000076683
109       0.000046723850
110      -0.000085290844
111      -0.000005371093
112       0.000018934300
113      -0.000234324686
114       0.000156360355
115      -0.000000144071
116      -0.000223312030
117       0.000127650124
118      -0.000273718546
119       0.000000523086
120      -0.006154701024
121      -0.003690298614
122       0.003842332466
123      -0.000001456706
124      -0.002817698448
125       0.007784356444
126       0.000867378675
127       0.000000933167
128       0.000114760554
129       0.000000269020
130       0.000000078346
131       0.000108304687
132      -0.000481059301
133       0.000003319135
134      -0.000018019628
135       0.000005076476
136       0.000018277218
137      -0.000000016495
138       0.000300311550
139       0.000061286174
140      -0.000083292112
141       0.000000075084
142      -0.001396472802
143      -0.000985382468
144      -0.000915550483
145      -0.000000526063
146       0.006793246839
147       0.002876606001
148       0.001368425664
149       0.000001004475
150      -0.000020152101
151       0.000000056417
152      -0.000000171886
153      -0.000063113455
154      -0.000052282444
155      -0.000082904384
156       0.001375774177
157      -0.000714266209
158      -0.000493264825
159      -0.000126631797
160      -0.000253650430
161       0.000227315535
162      -0.000082897614
163       0.001375837481
164      -0.000713349193
165      -0.000492025619
166      -0.000126703700
167      -0.000253822364
168      -0.000227167815
169       0.000027363886
170      -0.000095382483
171      -0.000122403367
172       0.000879277268
173       0.000046386045
174      -0.000043796743
175      -0.000000063607
176      -0.000027975077
177      -0.000106361824
178      -0.000274054643
179      -0.000917634919
180      -0.000055589497
181       0.000029416051
182      -0.000008298903
183      -0.000028034918
184      -0.000106245699
185      -0.000273836942
186      -0.000916701549
187      -0.000055478777
188       0.000029411650
189       0.000008281165
190      -0.000042885293
191       0.000510846688
192      -0.000299915736
193      -0.000301140098
194       0.000018292451
195       0.000015414032
196      -0.000077090941
197       0.000016095677
198      -0.000178010927
199       0.000057275342
200       0.001300482816
201       0.000041022951
202      -0.000014312346
203       0.000000072337
204      -0.000042869402
205       0.000510273301
206      -0.000299633199
207      -0.000302245598
208       0.000018276747
209       0.000015578059
210       0.000077065747
 Sym=     1a
 Ene= -1.91110293350580E+01
 Spin= Alpha
 Occup= 2.000000
  1      -0.000068715849
  2      -0.000076220477
  3       0.000069781308
  4      -0.000035986925
  5      -0.000000018579
  6       0.000043043226
  7      -0.000331082015
  8       0.000083631741
  9       0.000000123930
 10      -0.000409409836
 11       0.001336756668
 12       0.001049637717
 13      -0.000001277260
 14      -0.001785142887
 15       0.002359749227
 16      -0.000175813245
 17      -0.000001106008
 18      -0.000074131718
 19       0.000000123677
 20      -0.000000088850
 21      -0.000085595686
 22      -0.000129915677
 23      -0.000071155867
 24      -0.000081309780
 25      -0.000053310534
 26      -0.000051684256
 27      -0.000000044871
 28       0.000069938179
 29       0.000277890432
 30       0.000166679475
 31       0.000000231966
 32      -0.000509900396
 33      -0.001516624099
 34       0.000624087305
 35      -0.000001651639
 36      -0.001115549615
 37      -0.000543587300
 38      -0.000730970907
 39      -0.000000008866
 40      -0.000072374348
 41      -0.000000102442
 42      -0.000000096258
 43      -0.000144083362
 44       0.000064359770
 45      -0.551308892527
 46      -0.469689642102
 47      -0.000186112512
 48       0.001226010673
 49      -0.000001110244
 50      -0.014077326923
 51      -0.000135282477
 52       0.000777381707
 53      -0.000000705620
 54       0.011626483193
 55       0.000390922787
 56      -0.002104023638
 57       0.000001786019
 58      -0.001836006289
 59      -0.000195943837
 60      -0.000887452444
 61       0.000001012928
 62       0.000142402372
 63      -0.000000068741
 64       0.000000463348
 65       0.000271966475
 66       0.000087358462
 67      -0.000005609024
 68       0.000020537013
 69      -0.000026073001
 70      -0.000017483185
 71       0.000000051183
 72      -0.000023491952
 73       0.000226927477
 74       0.000022588331
 75      -0.000000258927
 76      -0.002335319875
 77      -0.000010264505
 78       0.000398588250
 79       0.000000857110
 80      -0.009031588208
 81      -0.000449347578
 82       0.002225922292
 83       0.000001551907
 84      -0.000064885822
 85      -0.000000049572
 86      -0.000000007735
 87       0.000069918643
 88      -0.000098937287
 89      -0.000000545628
 90       0.000002081110
 91       0.000015788194
 92       0.000002170160
 93      -0.000000000470
 94      -0.000001516074
 95      -0.000078248705
 96      -0.000000892904
 97      -0.000000001999
 98       0.000696022415
 99       0.000296726501
100       0.000433533394
101      -0.000000490245
102       0.007262612227
103      -0.001655605540
104       0.001013583807
105      -0.000000423835
106       0.000013568774
107       0.000000025896
108       0.000000015223
109      -0.000001346917
110       0.000019090760
111       0.000027636025
112      -0.000111781950
113       0.000057837288
114      -0.000383138795
115       0.000000251224
116      -0.000486707652
117      -0.000153507718
118       0.001035887071
119      -0.000000692563
120      -0.001139302534
121       0.001129946294
122      -0.007231382668
123       0.000005317068
124       0.006533790604
125       0.001855406296
126       0.001256835296
127      -0.000002029092
128      -0.000318536754
129       0.000000145545
130      -0.000001104865
131      -0.000958405197
132      -0.000310101885
133      -0.000006996605
134       0.000028520914
135       0.000019646710
136      -0.000020382253
137       0.000000010038
138      -0.000137327207
139      -0.000163647047
140       0.000023146533
141      -0.000000059204
142      -0.001417979381
143      -0.000245468257
144       0.000133179953
145       0.000000333573
146       0.000890668122
147      -0.000146809625
148       0.000291358232
149       0.000000435022
150      -0.000070955029
151       0.000000051688
152       0.000000009975
153       0.000004495471
154       0.000129569914
155      -0.000082998411
156       0.000585997554
157       0.000090835904
158      -0.000913906457
159      -0.000095025706
160      -0.000076397530
161       0.000116441223
162      -0.000082996949
163       0.000585598016
164       0.000089431888
165      -0.000917176311
166      -0.000095052143
167      -0.000076411426
168      -0.000116487541
169       0.000010181714
170      -0.000143582974
171      -0.000677788808
172       0.000056889935
173       0.000013224719
174       0.000017224167
175       0.000000035300
176      -0.000023963309
177       0.000105409152
178      -0.000337391896
179       0.000124531445
180      -0.000023286779
181      -0.000008636849
182      -0.000011603559
183      -0.000023965612
184       0.000105226628
185      -0.000337363691
186       0.000123425140
187      -0.000023333887
188      -0.000008655814
189       0.000011581945
190      -0.000081584315
191       0.000544311594
192      -0.000011850352
193      -0.000658699876
194       0.000119283593
195      -0.000037524542
196      -0.000101547691
197      -0.000045429482
198       0.000201521508
199      -0.000104005235
200       0.000335694856
201      -0.000022713802
202      -0.000012086545
203      -0.000000067469
204      -0.000081588107
205       0.000544656915
206      -0.000011657644
207      -0.000658137608
208       0.000119187701
209      -0.000037510449
210       0.000101646882
 Sym=     1a
 Ene= -1.03436925609201E+01
 Spin= Alpha
 Occup= 2.000000
  1       0.000037011191
  2       0.000076670239
  3       0.000240920135
  4      -0.000103407797
  5       0.000000019647
  6      -0.000760309554
  7      -0.000345656442
  8       0.000081649575
  9       0.000000004213
 10       0.002035580625
 11      -0.001059816439
 12       0.000909208600
 13      -0.000000169513
 14      -0.007002515327
 15       0.004881522905
 16      -0.002333028149
 17       0.000000274052
 18      -0.000379172209
 19      -0.000000023519
 20      -0.000000098293
 21       0.000342993146
 22      -0.000319851171
 23       0.000036670216
 24       0.000079014175
 25      -0.000196287165
 26      -0.000175189372
 27      -0.000000017152
 28      -0.000768714363
 29       0.000300087666
 30       0.000202190117
 31       0.000000063982
 32       0.002081131613
 33       0.000592920195
 34       0.001072400682
 35      -0.000000123529
 36      -0.003210927868
 37      -0.002005037975
 38      -0.001718456702
 39      -0.000000355915
 40      -0.000371062652
 41       0.000000183190
 42      -0.000000017412
 43       0.000096423290
 44       0.000429125934
 45       0.000096059732
 46       0.000058105236
 47      -0.000085699598
 48       0.000536081830
 49      -0.000000443088
 50      -0.000373714781
 51       0.000292462812
 52      -0.001821928628
 53       0.000001564716
 54       0.004972444696
 55       0.000289898917
 56      -0.002302742361
 57       0.000001970568
 58      -0.005535650711
 59      -0.000284401492
 60       0.002462857038
 61      -0.000001976647
 62      -0.000597753649
 63       0.000000260288
 64      -0.000001637850
 65      -0.000863657340
 66      -0.000272987266
 67       0.000009835403
 68       0.000009990678
 69      -0.000105427659
 70       0.000014774475
 71       0.000000054299
 72       0.000198512760
 73       0.000323098693
 74      -0.000080683094
 75      -0.000000170807
 76      -0.001009619940
 77       0.000438925881
 78      -0.000658010954
 79      -0.000000101979
 80       0.004621706599
 81       0.003271951972
 82      -0.000487999166
 83      -0.000002575686
 84      -0.000006392013
 85       0.000000008213
 86      -0.000000111425
 87      -0.000183786610
 88      -0.000002305170
 89       0.000002206302
 90      -0.000007073026
 91       0.000005633809
 92       0.000017107323
 93      -0.000000001866
 94       0.000099172915
 95      -0.000030003316
 96      -0.000117347648
 97      -0.000000002792
 98      -0.000862495935
 99       0.000522171567
100       0.000026191680
101      -0.000000078246
102      -0.009774314836
103       0.003086418185
104       0.000190338906
105       0.000000452471
106       0.000054518259
107      -0.000000017376
108       0.000000013351
109      -0.000054771908
110       0.000005608508
111      -0.563061689048
112      -0.463317755033
113      -0.000088724990
114       0.000775218240
115      -0.000000808823
116      -0.018584218245
117       0.000171077664
118      -0.002076554672
119       0.000003001764
120       0.013776348088
121       0.001001847569
122      -0.001104849192
123      -0.000000006880
124       0.013113320924
125       0.001629343976
126      -0.000543659195
127      -0.000001083596
128       0.001542051215
129      -0.000000532493
130       0.000002660865
131       0.001253258932
132       0.000423112704
133       0.000010402064
134       0.000008681648
135       0.000093683287
136       0.000036409118
137       0.000000028223
138       0.000212751580