
                                 *****************
                                 * O   R   C   A *
                                 *****************

                                            #,                                       
                                            ###                                      
                                            ####                                     
                                            #####                                    
                                            ######                                   
                                           ########,                                 
                                     ,,################,,,,,                         
                               ,,#################################,,                 
                          ,,##########################################,,             
                       ,#########################################, ''#####,          
                    ,#############################################,,   '####,        
                  ,##################################################,,,,####,       
                ,###########''''           ''''###############################       
              ,#####''   ,,,,##########,,,,          '''####'''          '####       
            ,##' ,,,,###########################,,,                        '##       
           ' ,,###''''                  '''############,,,                           
         ,,##''                                '''############,,,,        ,,,,,,###''
      ,#''                                            '''#######################'''  
     '                                                          ''''####''''         
             ,#######,   #######,   ,#######,      ##                                
            ,#'     '#,  ##    ##  ,#'     '#,    #''#        ,####,   ,####,        
            ##       ##  ##   ,#'  ##            #'  '#       #'       #'  '#        
            ##       ##  #######   ##           ,######,      #####,   #    #        
            '#,     ,#'  ##    ##  '#,     ,#' ,#      #,     #,   #   #,  ,#        
             '#######'   ##     ##  '#######'  #'      '#     '####' # '####'        



                #########################################################
                #                        -***-                          #
                #          Department of theory and spectroscopy        #
                #                                                       #
                #                      Frank Neese                      #
                #                                                       #
                #     Directorship, Architecture, Infrastructure        #
                #                    SHARK, DRIVERS                     #
                #        Core code/Algorithms in most modules           #
                #                                                       #
                #        Max Planck Institute fuer Kohlenforschung      #
                #                Kaiser Wilhelm Platz 1                 #
                #                 D-45470 Muelheim/Ruhr                 #
                #                      Germany                          #
                #                                                       #
                #                  All rights reserved                  #
                #                        -***-                          #
                #########################################################


                         Program Version 6.0.1  -  RELEASE   -


 With contributions from (in alphabetic order):
[Max-Planck-Institut fuer Kohlenforschung]                               
  Daniel Aravena         : Magnetic Suceptibility                        
  Michael Atanasov       : Ab Initio Ligand Field Theory (pilot matlab implementation)
  Alexander A. Auer      : GIAO ZORA, VPT2 properties, NMR spectrum      
  Ute Becker             : All parallelization in ORCA, NUMFREQ, NUMCALC 
  Giovanni Bistoni       : ED, misc. LED, open-shell LED, HFLD           
  Martin Brehm           : Molecular dynamics                            
  Dmytro Bykov           : pre 5.0 version of the SCF Hessian            
  Marcos Casanova-Páez   : Triplet and SCS-CIS(D). UHF-(DLPNO)-IP/EA/STEOM-CCSD. UHF-CVS-IP/STEOM-CCSD   
  Vijay G. Chilkuri      : MRCI spin determinant printing, contributions to CSF-ICE 
  Pauline Colinet        : FMM embedding                                 
  Dipayan Datta          : RHF DLPNO-CCSD density                        
  Achintya Kumar Dutta   : EOM-CC, STEOM-CC                              
  Nicolas Foglia         : Exact transition moments, OPA infrastructure, MCD improvements    
  Dmitry Ganyushin       : Spin-Orbit,Spin-Spin,Magnetic field MRCI      
  Miquel Garcia-Rates    : C-PCM and meta-GGA Hessian, CCSD/C-PCM, Gaussian charge scheme 
  Tiago L. C. Gouveia    : GS-ROHF, GS-ROCIS                             
  Yang Guo               : DLPNO-NEVPT2, F12-NEVPT2, CIM, IAO-localization        
  Andreas Hansen         : Spin unrestricted coupled pair/coupled cluster methods 
  Ingolf Harden          : AUTO-CI MPn and infrastructure                
  Benjamin Helmich-Paris : MC-RPA, TRAH-(SCF,CASSCF), AVAS, COSX integrals, SCF dyn. polar. 
  Lee Huntington         : MR-EOM, pCC                                   
  Robert Izsak           : Overlap fitted RIJCOSX, COSX-SCS-MP3, EOM     
  Riya Kayal             : Wick's Theorem for AUTO-CI, AUTO-CI UHF-CCSDT 
  Emily Kempfer          : AUTO-CI, RHF CISDT and CCSDT                  
  Christian Kollmar      : KDIIS, OOCD, Brueckner-CCSD(T), CCSD density, CASPT2, CASPT2-K, improved NEVPT2 
  Axel Koslowski         : Symmetry handling                             
  Simone Kossmann        : meta-GGA functionals, TD-DFT gradient, OOMP2, (MP2 Hessian; deprecated post 5.0) 
  Lucas Lang             : DCDCAS                                        
  Marvin Lechner         : AUTO-CI (C++ implementation), FIC-MRCC        
  Spencer Leger          : CASSCF response                               
  Dagmar Lenk            : GEPOL surface, SMD, ORCA-2-JSON               
  Dimitrios Liakos       : Extrapolation schemes; Compound Job, initial MDCI parallelization 
  Dimitrios Manganas     : Further ROCIS development; embedding schemes. LFT, Crystal Embedding 
  Dimitrios Pantazis     : SARC Basis sets                               
  Anastasios Papadopoulos: AUTO-CI, single reference methods and gradients 
  Taras Petrenko         : pre 6.0 DFT Hessian and TD-DFT gradient, (ASA, deprecated), ECA, 1-Electron XAS/XES, NRVS 
  Peter Pinski           : DLPNO-MP2, DLPNO-MP2 Gradient                 
  Christoph Reimann      : Effective Core Potentials                     
  Marius Retegan         : Local ZFS, SOC                                
  Christoph Riplinger    : Optimizer, TS searches, QM/MM, DLPNO-CCSD(T), (RO)-DLPNO pert. Triples 
  Michael Roemelt        : Original ROCIS implementation                 
  Masaaki Saitow         : Open-shell DLPNO-CCSD energy and density      
  Barbara Sandhoefer     : DKH picture change effects                    
  Kantharuban Sivalingam : CASSCF convergence/infrastructure, NEVPT2 and variants, FIC-MRCI 
  Bernardo de Souza      : ESD, SOC TD-DFT                               
  Georgi L. Stoychev     : AutoAux, RI-MP2 NMR, DLPNO-MP2 response, X2C  
  Van Anh Tran           : RI-MP2 g-tensors                              
  Willem Van den Heuvel  : Paramagnetic NMR                              
  Zikuan Wang            : NOTCH, Electric field optimization            
  Frank Wennmohs         : Technical directorship and infrastructure     
  Hang Xu                : AUTO-CI-Response properties                   
                                                                         
[FACCTs GmbH]                                                            
  Markus Bursch, Miquel Garcia-Rates, Christoph Riplinger, Bernardo de Souza, Georgi L. Stoychev 
                                                                 
  APM, Basis sets (HGBS, AHGBS, def-TZVP (Ac-Lr), def2-XVPD (La-Lu)), CI-OPT, improved COSX, DLPNO-Multilevel,           
  DOCKER, DRACO, updates on ESD, GOAT, IRC, LR-CPCM, MBIS, meta-GGA TD-DFT gradient, ML-optimized integration grids, 
  MM, NACMEs, nearIR, NEB, NEB-TS, NL-DFT gradient (VV10), 2- and 3-layer-ONIOM, interface openCOSMO-RS, QMMM,   
  Crystal-QMMM, SF, symmetry and pop. for TD-DFT, r2SCAN hybrids, SOLVATOR                                   
                                                                         
[Other institutions]                                                     
  V. Asgeirsson          : NEB                                           
  Christoph Bannwarth    : sTDA-DFT, sTD-DFT, PBEh-3c, B97-3c, D3        
  Sebastian Ehlert       : rSCAN, r2SCAN, r2SCAN-3c, D4, dhf basis sets  
  Marvin Friede          : D4 for Fr, Ra, Ac-Lr                          
  Lars Goerigk           : TD-DFT with DH, B97 family of functionals     
  Stefan Grimme          : VdW corrections, initial TS optimization, DFT functionals, gCP, sTDA/sTD-DF 
  Waldemar Hujo          : DFT-NL                                        
  H. Jonsson             : NEB                                           
  Holger Kruse           : gCP                                           
  Marcel Mueller         : wB97X-3c, vDZP basis set                      
  Hagen Neugebauer       : wr2SCAN                                       
  Tobias Risthaus        : range-separated hybrid DFT                    
  Lukas Wittmann         : regularized MP2, r2SCAN double-hybrids, wr2SCAN        
                                                                         
We gratefully acknowledge several colleagues who have allowed us to      
interface, adapt or use parts of their codes:                            
  Ed Valeev, F. Pavosevic, A. Kumar             : LibInt (2-el integral package), F12 methods 
  Garnet Chan, S. Sharma, J. Yang, R. Olivares  : DMRG                   
  Ulf Ekstrom                                   : XCFun DFT Library      
  Mihaly Kallay                                 : mrcc  (arbitrary order and MRCC methods)
  Frank Weinhold                                : gennbo (NPA and NBO analysis)           
  Simon Mueller                                 : openCOSMO-RS                            
  Christopher J. Cramer and Donald G. Truhlar   : smd solvation model                     
  S Lehtola, MJT Oliveira, MAL Marques          : LibXC Library                           
  Liviu Ungur et al                             : ANISO software                          


 Your calculation uses the libint2 library for the computation of 2-el integrals
 For citations please refer to: http://libint.valeyev.net

 Your ORCA version has been built with support for libXC version: 6.2.2
 For citations please refer to: https://libxc.gitlab.io

 This ORCA versions uses:
   CBLAS   interface :  Fast vector & matrix operations
   LAPACKE interface :  Fast linear algebra routines
   SCALAPACK package :  Parallel linear algebra routines
   Shared memory     :  Shared parallel matrices
   BLAS/LAPACK       :  OpenBLAS 0.3.27  USE64BITINT DYNAMIC_ARCH NO_AFFINITY SkylakeX SINGLE_THREADED
        Core in use  :  SkylakeX
   Copyright (c) 2011-2014, The OpenBLAS Project


NOTE: MaxCore=5000 MB was set to SCF,MP2,MDCI,CIPSI,MRCI and CIS
      => If you want to overwrite this, your respective input block should be placed after the MaxCore statement
Your calculation utilizes the atom-pairwise dispersion correction
with the Becke-Johnson damping scheme (D3BJ)


Warning: RI is on but no J-basis has been assigned. Assigning Def2/J (nothing to worry about!)
================================================================================

----- Orbital basis set information -----
Your calculation utilizes the basis: 6-311++G(d,p)
   H, Li - Ne  : R. Krishnan, J. S. Binkley, R. Seeger and J. A. Pople, J. Chem. Phys. 72, 650 (1980).
   Na - Ar     : A. D. McLean and G. S. Chandler J. Chem. Phys. 72, 5639, (1980).
   K  - Ca     : J.-P. Blaudeau, M. P. McGrath, L. A. Curtiss and L. Radom, J. Chem. Phys. 107, 5016 (1997).
   Ga - Kr     : L. A. Curtiss, M. P. McGrath, J.-P. Blandeau, N. E. Davis, R. C. Binning and L. Radom, J. Chem. Phys. 103, 6104 (1995).
   Pol./Diff.
   H, Li - Cl  : T. Clark, J. Chandrasekhar and P. v. R. Schleyer, J. Comp. Chem. 4, 294 (1983).
   H - Ne      : M. J. Frisch, J. A. Pople and J. S. Binkley, J. Chem. Phys. 80, 3265 (1984).

----- AuxJ basis set information -----
Your calculation utilizes the auxiliary basis: def2/J
   F. Weigend, Phys. Chem. Chem. Phys. 8, 1057 (2006).

================================================================================
                                        WARNINGS
                       Please study these warnings very carefully!
================================================================================


WARNING: Geometry Optimization
  ===> : Switching off AutoStart
         For restart on a previous wavefunction, please use MOREAD

================================================================================
                                       INPUT FILE
================================================================================
NAME = input.inp
|  1> ! B3LYP D3BJ 6-311++G(d,p) Opt TightSCF RIJCOSX
|  2> 
|  3> %maxcore 5000
|  4> 
|  5> %pal
|  6> nprocs 32
|  7> end
|  8> 
|  9> * xyz 0 1
| 10>   O           0.00733284350875      1.11399078918341      0.00204537028447
| 11>   O           0.00709557691569     -1.11404130992094     -0.00197593164161
| 12>   O           1.97127960243914     -0.00023543378367     -0.00028662719366
| 13>   C          -1.36676765285451      0.74454086218088      0.17438887885103
| 14>   C          -1.36701136805709     -0.74427550292040     -0.17382652008983
| 15>   C           0.78448654550527     -0.00011297375654     -0.00011778161346
| 16>   H          -1.97810858944441      1.34840394166325     -0.49253595022678
| 17>   H          -1.65374303169424      0.93424113307576      1.21032672554946
| 18>   H          -1.97820851117037     -1.34799639213052      0.49335065664698
| 19>   H          -1.65435541514824     -0.93391511359124     -1.20966882056660
| 20> *
| 21> 
| 22>                          ****END OF INPUT****
================================================================================

                       *****************************
                       * Geometry Optimization Run *
                       *****************************

Geometry optimization settings:
Update method            Update   .... BFGS
Choice of coordinates    CoordSys .... (2022) Redundant Internals
Initial Hessian          InHess   .... Almloef's Model
Max. no of cycles        MaxIter  .... 50

Convergence Tolerances:
Energy Change            TolE     ....  5.0000e-06 Eh
Max. Gradient            TolMAXG  ....  3.0000e-04 Eh/bohr
RMS Gradient             TolRMSG  ....  1.0000e-04 Eh/bohr
Max. Displacement        TolMAXD  ....  4.0000e-03 bohr
RMS Displacement         TolRMSD  ....  2.0000e-03 bohr
Strict Convergence                .... False

------------------------------------------------------------------------------
                        ORCA OPTIMIZATION COORDINATE SETUP
------------------------------------------------------------------------------

The optimization will be done in redundant internal coordinates (2022)
Making redundant internal coordinates   ...  (2022 redundants) done
Evaluating the initial hessian          ...  (Almloef) done
Evaluating the coordinates              ...  done
Calculating the B-matrix                .... done
Calculating the G-matrix                .... done
Diagonalizing the G-matrix              .... done
The first mode is                       ....   19
The number of degrees of freedom        ....   24

    -----------------------------------------------------------------
                    Redundant Internal Coordinates


    -----------------------------------------------------------------
         Definition                    Initial Value    Approx d2E/dq
    -----------------------------------------------------------------
      1. B(C   3,O   0)                  1.4333         0.477303   
      2. B(C   4,C   3)                  1.5290         0.374955   
      3. B(C   4,O   1)                  1.4333         0.477253   
      4. B(C   5,O   2)                  1.1868         1.180536   
      5. B(C   5,O   1)                  1.3584         0.628543   
      6. B(C   5,O   0)                  1.3584         0.628523   
      7. B(H   6,C   3)                  1.0877         0.363103   
      8. B(H   7,C   3)                  1.0916         0.358039   
      9. B(H   8,C   4)                  1.0877         0.363110   
     10. B(H   9,C   4)                  1.0916         0.358045   
     11. A(C   3,O   0,C   5)          109.7107         0.409890   
     12. A(C   4,O   1,C   5)          109.7101         0.409885   
     13. A(O   0,C   3,H   6)          108.7835         0.336156   
     14. A(O   0,C   3,H   7)          108.7454         0.335371   
     15. A(O   0,C   3,C   4)          102.9298         0.376851   
     16. A(C   4,C   3,H   7)          112.6633         0.324210   
     17. A(H   6,C   3,H   7)          109.7336         0.290957   
     18. A(C   4,C   3,H   6)          113.6308         0.324958   
     19. A(C   3,C   4,H   8)          113.6308         0.324959   
     20. A(O   1,C   4,H   8)          108.7814         0.336151   
     21. A(O   1,C   4,C   3)          102.9288         0.376844   
     22. A(H   8,C   4,H   9)          109.7377         0.290958   
     23. A(C   3,C   4,H   9)          112.6640         0.324210   
     24. A(O   1,C   4,H   9)          108.7430         0.335366   
     25. A(O   1,C   5,O   2)          124.9045         0.482889   
     26. A(O   0,C   5,O   2)          124.9039         0.482887   
     27. A(O   0,C   5,O   1)          110.1915         0.430517   
     28. D(C   4,C   3,O   0,C   5)    -17.6482         0.017968   
     29. D(H   6,C   3,O   0,C   5)   -138.4777         0.017968   
     30. D(H   7,C   3,O   0,C   5)    102.0476         0.017968   
     31. D(H   8,C   4,C   3,H   7)     21.2685         0.011221   
     32. D(H   9,C   4,O   1,C   5)    102.0459         0.017964   
     33. D(O   1,C   4,C   3,O   0)     20.7640         0.011221   
     34. D(H   8,C   4,O   1,C   5)   -138.4771         0.017964   
     35. D(O   1,C   4,C   3,H   7)    -96.1836         0.011221   
     36. D(H   8,C   4,C   3,O   0)    138.2162         0.011221   
     37. D(H   8,C   4,C   3,H   6)   -104.3286         0.011221   
     38. D(O   1,C   4,C   3,H   6)    138.2193         0.011221   
     39. D(C   3,C   4,O   1,C   5)    -17.6490         0.017964   
     40. D(O   0,C   5,O   1,C   4)      7.3570         0.029044   
     41. D(O   2,C   5,O   0,C   3)   -172.6410         0.029042   
     42. D(O   1,C   5,O   0,C   3)      7.3552         0.029042   
     43. D(O   2,C   5,O   1,C   4)   -172.6467         0.029044   
    -----------------------------------------------------------------

Number of atoms                         .... 10
Number of degrees of freedom            .... 43


         *************************************************************
         *                GEOMETRY OPTIMIZATION CYCLE   1            *
         *************************************************************
---------------------------------
CARTESIAN COORDINATES (ANGSTROEM)
---------------------------------
  O      0.007333    1.113991    0.002045
  O      0.007096   -1.114041   -0.001976
  O      1.971280   -0.000235   -0.000287
  C     -1.366768    0.744541    0.174389
  C     -1.367011   -0.744276   -0.173827
  C      0.784487   -0.000113   -0.000118
  H     -1.978109    1.348404   -0.492536
  H     -1.653743    0.934241    1.210327
  H     -1.978209   -1.347996    0.493351
  H     -1.654355   -0.933915   -1.209669

----------------------------
CARTESIAN COORDINATES (A.U.)
----------------------------
  NO LB      ZA    FRAG     MASS         X           Y           Z
   0 O     8.0000    0    15.999    0.013857    2.105138    0.003865
   1 O     8.0000    0    15.999    0.013409   -2.105233   -0.003734
   2 O     8.0000    0    15.999    3.725179   -0.000445   -0.000542
   3 C     6.0000    0    12.011   -2.582817    1.406978    0.329547
   4 C     6.0000    0    12.011   -2.583277   -1.406477   -0.328485
   5 C     6.0000    0    12.011    1.482465   -0.000213   -0.000223
   6 H     1.0000    0     1.008   -3.738083    2.548114   -0.930758
   7 H     1.0000    0     1.008   -3.125121    1.765460    2.287186
   8 H     1.0000    0     1.008   -3.738272   -2.547344    0.932298
   9 H     1.0000    0     1.008   -3.126279   -1.764844   -2.285943

--------------------------------
INTERNAL COORDINATES (ANGSTROEM)
--------------------------------
 O      0   0   0     0.000000000000     0.00000000     0.00000000
 O      1   0   0     2.228035740693     0.00000000     0.00000000
 O      2   1   0     2.258004709824    60.43812885     0.00000000
 C      1   2   3     1.433299587530    75.06954158   187.16706611
 C      2   1   3     1.433328040959    75.06884747   187.16514348
 C      3   2   1     1.186793075263    29.56169647     0.00000000
 H      4   1   2     1.087739438999   108.78354538   225.87025900
 H      4   1   2     1.091562312953   108.74543140   106.39558266
 H      5   2   1     1.087734455176   108.78144510   225.87200145
 H      5   2   1     1.091558085853   108.74295095   106.39500946

---------------------------
INTERNAL COORDINATES (A.U.)
---------------------------
 O      0   0   0     0.000000000000     0.00000000     0.00000000
 O      1   0   0     4.210377366498     0.00000000     0.00000000
 O      2   1   0     4.267010510672    60.43812885     0.00000000
 C      1   2   3     2.708543688294    75.06954158   187.16706611
 C      2   1   3     2.708597457482    75.06884747   187.16514348
 C      3   2   1     2.242713889881    29.56169647     0.00000000
 H      4   1   2     2.055529644773   108.78354538   225.87025900
 H      4   1   2     2.062753829591   108.74543140   106.39558266
 H      5   2   1     2.055520226713   108.78144510   225.87200145
 H      5   2   1     2.062745841530   108.74295095   106.39500946

---------------------
BASIS SET INFORMATION
---------------------
There are 3 groups of distinct atoms

 Group   1 Type O   : 12s6p1d contracted to 5s4p1d pattern {63111/3111/1}
 Group   2 Type C   : 12s6p1d contracted to 5s4p1d pattern {63111/3111/1}
 Group   3 Type H   : 6s1p contracted to 4s1p pattern {3111/1}

Atom   0O    basis set group =>   1
Atom   1O    basis set group =>   1
Atom   2O    basis set group =>   1
Atom   3C    basis set group =>   2
Atom   4C    basis set group =>   2
Atom   5C    basis set group =>   2
Atom   6H    basis set group =>   3
Atom   7H    basis set group =>   3
Atom   8H    basis set group =>   3
Atom   9H    basis set group =>   3
---------------------------------
AUXILIARY/J BASIS SET INFORMATION
---------------------------------
There are 3 groups of distinct atoms

 Group   1 Type O   : 12s5p4d2f1g contracted to 6s4p3d1f1g pattern {711111/2111/211/2/1}
 Group   2 Type C   : 12s5p4d2f1g contracted to 6s4p3d1f1g pattern {711111/2111/211/2/1}
 Group   3 Type H   : 5s2p1d contracted to 3s1p1d pattern {311/2/1}

Atom   0O    basis set group =>   1
Atom   1O    basis set group =>   1
Atom   2O    basis set group =>   1
Atom   3C    basis set group =>   2
Atom   4C    basis set group =>   2
Atom   5C    basis set group =>   2
Atom   6H    basis set group =>   3
Atom   7H    basis set group =>   3
Atom   8H    basis set group =>   3
Atom   9H    basis set group =>   3
--------------------------------------------------------------------------
WARNING: There was an error initializing an OpenFabrics device.

  Local host:   ga00
  Local device: mlx5_0
--------------------------------------------------------------------------


           ************************************************************
           *        Program running with 32 parallel MPI-processes    *
           *              working on a common directory               *
           ************************************************************
------------------------------------------------------------------------------
                             ORCA STARTUP CALCULATIONS
                           -- RI-GTO INTEGRALS CHOSEN --
------------------------------------------------------------------------------
------------------------------------------------------------------------------
                   ___                                                        
                  /   \      - P O W E R E D   B Y -                         
                 /     \                                                     
                 |  |  |   _    _      __       _____    __    __             
                 |  |  |  | |  | |    /  \     |  _  \  |  |  /  |          
                  \  \/   | |  | |   /    \    | | | |  |  | /  /          
                 / \  \   | |__| |  /  /\  \   | |_| |  |  |/  /          
                |  |  |   |  __  | /  /__\  \  |    /   |      \           
                |  |  |   | |  | | |   __   |  |    \   |  |\   \          
                \     /   | |  | | |  |  |  |  | |\  \  |  | \   \       
                 \___/    |_|  |_| |__|  |__|  |_| \__\ |__|  \__/        
                                                                              
                      - O R C A' S   B I G   F R I E N D -                    
                                      &                                       
                       - I N T E G R A L  F E E D E R -                       
                                                                              
 v1 FN, 2020, v2 2021, v3 2022-2024                                           
------------------------------------------------------------------------------


----------------------
SHARK INTEGRAL PACKAGE
----------------------

Number of atoms                             ...     10
Number of basis functions                   ...    160
Number of shells                            ...     80
Maximum angular momentum                    ...      2
Integral batch strategy                     ... SHARK/LIBINT Hybrid
RI-J (if used) integral strategy            ... SPLIT-RIJ (Revised 2003 algorithm where possible)
Printlevel                                  ...      1
Contraction scheme used                     ... SEGMENTED contraction
Prescreening option                         ... SCHWARTZ
   Thresh                                   ... 2.500e-11
   Tcut                                     ... 2.500e-12
   Tpresel                                  ... 2.500e-12 
Coulomb Range Separation                    ... NOT USED
Exchange Range Separation                   ... NOT USED
Multipole approximations                    ... NOT USED
Finite Nucleus Model                        ... NOT USED
CABS basis                                  ... NOT available
Auxiliary Coulomb fitting basis             ... AVAILABLE
   # of basis functions in Aux-J            ...    338
   # of shells in Aux-J                     ...    110
   Maximum angular momentum in Aux-J        ...      4
Auxiliary J/K fitting basis                 ... NOT available
Auxiliary Correlation fitting basis         ... NOT available
Auxiliary 'external' fitting basis          ... NOT available

Checking pre-screening integrals            ... done (  0.0 sec) Dimension = 80
Check shell pair data                       ... done (  0.0 sec)
Shell pair information
Shell pair cut-off parameter TPreSel        ...   2.5e-12
Total number of shell pairs                 ...      3240
Shell pairs after pre-screening             ...      3136
Total number of primitive shell pairs       ...     10291
Primitive shell pairs kept                  ...      7886
          la=0 lb=0:   1029 shell pairs
          la=1 lb=0:   1250 shell pairs
          la=1 lb=1:    400 shell pairs
          la=2 lb=0:    268 shell pairs
          la=2 lb=1:    168 shell pairs
          la=2 lb=2:     21 shell pairs

Calculating one electron integrals          ... done (  0.0 sec)
Calculating RI/J V-Matrix + Cholesky decomp.... done (  0.0 sec)
Calculating Nuclear repulsion               ... done (  0.0 sec) ENN=    246.353423719982 Eh

Diagonalization of the overlap matrix:
Smallest eigenvalue                        ... 7.553e-05
Time for diagonalization                   ...    0.002 sec
Threshold for overlap eigenvalues          ... 1.000e-07
Number of eigenvalues below threshold      ... 0
Time for construction of square roots      ...    0.001 sec
Total time needed                          ...    0.004 sec

-------------------
DFT GRID GENERATION
-------------------

General Integration Accuracy     IntAcc      ... 4.388
Radial Grid Type                 RadialGrid  ... OptM3 with GC (2021)
Angular Grid (max. ang.)         AngularGrid ... 4 (Lebedev-302)
Angular grid pruning method      GridPruning ... 4 (adaptive)
Weight generation scheme         WeightScheme... mBecke (2022)
Basis function cutoff            BFCut       ... 1.0000e-11
Integration weight cutoff        WCut        ... 1.0000e-14
Partially contracted basis set               ... off
Rotationally invariant grid construction     ... off
Angular grids for H and He will be reduced by one unit
Diffuse basis detected: some atoms will have their outermost
                        angular grid increased by 1.

Total number of grid points                  ...    51809
Total number of batches                      ...      815
Average number of points per batch           ...       63
Average number of grid points per atom       ...     5181

--------------------
COSX GRID GENERATION
--------------------

GRIDX 1
-------
General Integration Accuracy     IntAcc      ... 3.816
Radial Grid Type                 RadialGrid  ... OptM3 with GC (2021)
Angular Grid (max. ang.)         AngularGrid ... 1 (Lebedev-50)
Angular grid pruning method      GridPruning ... 4 (adaptive)
Weight generation scheme         WeightScheme... mBecke (2022)
Basis function cutoff            BFCut       ... 1.0000e-11
Integration weight cutoff        WCut        ... 1.0000e-14
Partially contracted basis set               ... on
Rotationally invariant grid construction     ... off
Angular grids for H and He will be reduced by one unit
Diffuse basis detected: some atoms will have their outermost
                        angular grid increased by 1.

Total number of grid points                  ...     6519
Total number of batches                      ...       56
Average number of points per batch           ...      116
Average number of grid points per atom       ...      652
UseSFitting                                  ... on

GRIDX 2
-------
General Integration Accuracy     IntAcc      ... 4.020
Radial Grid Type                 RadialGrid  ... OptM3 with GC (2021)
Angular Grid (max. ang.)         AngularGrid ... 2 (Lebedev-110)
Angular grid pruning method      GridPruning ... 4 (adaptive)
Weight generation scheme         WeightScheme... mBecke (2022)
Basis function cutoff            BFCut       ... 1.0000e-11
Integration weight cutoff        WCut        ... 1.0000e-14
Partially contracted basis set               ... on
Rotationally invariant grid construction     ... off
Angular grids for H and He will be reduced by one unit
Diffuse basis detected: some atoms will have their outermost
                        angular grid increased by 1.

Total number of grid points                  ...    16465
Total number of batches                      ...      135
Average number of points per batch           ...      121
Average number of grid points per atom       ...     1646
UseSFitting                                  ... on

GRIDX 3
-------
General Integration Accuracy     IntAcc      ... 4.338
Radial Grid Type                 RadialGrid  ... OptM3 with GC (2021)
Angular Grid (max. ang.)         AngularGrid ... 3 (Lebedev-194)
Angular grid pruning method      GridPruning ... 4 (adaptive)
Weight generation scheme         WeightScheme... mBecke (2022)
Basis function cutoff            BFCut       ... 1.0000e-11
Integration weight cutoff        WCut        ... 1.0000e-14
Partially contracted basis set               ... on
Rotationally invariant grid construction     ... off
Angular grids for H and He will be reduced by one unit
Diffuse basis detected: some atoms will have their outermost
                        angular grid increased by 1.

Total number of grid points                  ...    36463
Total number of batches                      ...      289
Average number of points per batch           ...      126
Average number of grid points per atom       ...     3646
UseSFitting                                  ... on
Initializing property integral containers    ... done (  0.0 sec)

SHARK setup successfully completed in   0.5 seconds

Maximum memory used throughout the entire STARTUP-calculation: 16.5 MB
[ga00:4126192] 31 more processes have sent help message help-mpi-btl-openib.txt / error in device init
[ga00:4126192] Set MCA parameter "orte_base_help_aggregate" to 0 to see all help / error messages
--------------------------------------------------------------------------
WARNING: There was an error initializing an OpenFabrics device.

  Local host:   ga00
  Local device: mlx5_0
--------------------------------------------------------------------------


           ************************************************************
           *        Program running with 32 parallel MPI-processes    *
           *              working on a common directory               *
           ************************************************************
-------------------------------------------------------------------------------
                                 ORCA GUESS
                   Start orbitals & Density for SCF / CASSCF
-------------------------------------------------------------------------------

------------
SCF SETTINGS
------------
Hamiltonian:
 Density Functional     Method          .... DFT(GTOs)
 Exchange Functional    Exchange        .... B88
   X-Alpha parameter    XAlpha          ....  0.666667
   Becke's b parameter  XBeta           ....  0.004200
 Correlation Functional Correlation     .... LYP
 LDA part of GGA corr.  LDAOpt          .... VWN-5
 Gradients option       PostSCFGGA      .... off
 Hybrid DFT is turned on
   Fraction HF Exchange ScalHFX         ....  0.200000
   Scaling of DF-GGA-X  ScalDFX         ....  0.720000
   Scaling of DF-GGA-C  ScalDFC         ....  0.810000
   Scaling of DF-LDA-C  ScalLDAC        ....  1.000000
   Perturbative correction              ....  0.000000
   NL short-range parameter             ....  4.800000
 RI-approximation to the Coulomb term is turned on
   Number of AuxJ basis functions       .... 338
   RIJ-COSX (HFX calculated with COS-X)).... on


General Settings:
 Integral files         IntName         .... input
 Hartree-Fock type      HFTyp           .... RHF
 Total Charge           Charge          ....    0
 Multiplicity           Mult            ....    1
 Number of Electrons    NEL             ....   46
 Basis Dimension        Dim             ....  160
 Nuclear Repulsion      ENuc            ....    246.3534237200 Eh

Convergence Acceleration:
 AO-DIIS                CNVDIIS         .... on
   Start iteration      DIISMaxIt       ....    12
   Startup error        DIISStart       ....  0.200000
   # of expansion vecs  DIISMaxEq       ....     5
   Bias factor          DIISBfac        ....   1.050
   Max. coefficient     DIISMaxC        ....  10.000
 MO-DIIS                CNVKDIIS        .... off
 Trust-Rad. Augm. Hess. CNVTRAH         .... auto
   Auto Start mean grad. ratio tolernc. ....  1.125000
   Auto Start start iteration           ....    50
   Auto Start num. interpolation iter.  ....    10
   Max. Number of Micro iterations      ....    24
   Max. Number of Macro iterations      .... Maxiter - #DIIS iter
   Number of Davidson start vectors     ....     2
   Converg. threshold    (grad. norm)   ....   1.000e-05
   Grad. Scal. Fac. for Micro threshold ....   0.100
   Minimum threshold for Micro iter.    ....   1.000e-02
   NR start threshold (gradient norm)   ....   1.000e-04
   Initial trust radius                 ....   0.400
   Minimum AH scaling param. (alpha)    ....   1.000
   Maximum AH scaling param. (alpha)    .... 1000.000
   Quad. conv. algorithm                .... NR
   White noise on init. David. guess    .... on
   Maximum white noise                  ....   0.010
   Pseudo random numbers                .... off
   Inactive MOs                         .... canonical
   Orbital update algorithm             .... Taylor
   Preconditioner                       .... Diag
   Full preconditioner red. dimension   ....   250
 SOSCF                  CNVSOSCF        .... on
   Start iteration      SOSCFMaxIt      ....   150
   Startup grad/error   SOSCFStart      ....  0.003300
   Hessian update       SOSCFHessUp     .... L-BFGS
 Level Shifting         CNVShift        .... on
   Level shift para.    LevelShift      ....    0.2500
   Turn off err/grad.   ShiftErr        ....    0.0010
 Zerner damping         CNVZerner       .... off
 Static damping         CNVDamp         .... on
   Fraction old density DampFac         ....    0.7000
   Max. Damping (<1)    DampMax         ....    0.9800
   Min. Damping (>=0)   DampMin         ....    0.0000
   Turn off err/grad.   DampErr         ....    0.1000

SCF Procedure:
 Maximum # iterations   MaxIter         ....   125
 SCF integral mode      SCFMode         .... Direct
   Integral package                     .... SHARK and LIBINT hybrid scheme
 Reset frequency        DirectResetFreq ....    20
 Integral Threshold     Thresh          ....  2.500e-11 Eh
 Primitive CutOff       TCut            ....  2.500e-12 Eh

Convergence Tolerance:
 Convergence Check Mode ConvCheckMode   .... Total+1el-Energy
 Convergence forced     ConvForced      .... 0
 Energy Change          TolE            ....  1.000e-08 Eh
 1-El. energy change                    ....  1.000e-05 Eh
 Orbital Gradient       TolG            ....  1.000e-05
 Orbital Rotation angle TolX            ....  1.000e-05
 DIIS Error             TolErr          ....  5.000e-07

------------------------------
INITIAL GUESS: MODEL POTENTIAL
------------------------------
Loading Hartree-Fock densities                     ... done
Calculating cut-offs                               ... done
Initializing the effective Hamiltonian             ... done
Setting up the integral package (SHARK)            ... done
Starting the Coulomb interaction                   ... done (   0.0 sec)
Making the grid                                    ... done (   0.1 sec)
Mapping shells                                     ... done
Starting the XC term evaluation                    ... done (   0.0 sec)
  promolecular density results
     # of electrons  =     45.995329263
     EX              =    -41.230901013
     EC              =     -1.616375588
     EX+EC           =    -42.847276602
Transforming the Hamiltonian                       ... done (   0.0 sec)
Diagonalizing the Hamiltonian                      ... done (   0.0 sec)
Back transforming the eigenvectors                 ... done (   0.0 sec)
Now organizing SCF variables                       ... done
                      ------------------
                      INITIAL GUESS DONE (   0.1 sec)
                      ------------------
             **** ENERGY FILE WAS UPDATED (input.en.tmp) ****
Finished Guess after   0.9 sec
Maximum memory used throughout the entire GUESS-calculation: 10.8 MB
[ga00:4126342] 31 more processes have sent help message help-mpi-btl-openib.txt / error in device init
[ga00:4126342] Set MCA parameter "orte_base_help_aggregate" to 0 to see all help / error messages
--------------------------------------------------------------------------
WARNING: There was an error initializing an OpenFabrics device.

  Local host:   ga00
  Local device: mlx5_0
--------------------------------------------------------------------------


           ************************************************************
           *        Program running with 32 parallel MPI-processes    *
           *              working on a common directory               *
           ************************************************************

-------------------------------------------------------------------------------------------
                                      ORCA LEAN-SCF
                              memory conserving SCF solver
-------------------------------------------------------------------------------------------

----------------------------------------D-I-I-S--------------------------------------------
Iteration    Energy (Eh)           Delta-E    RMSDP     MaxDP     DIISErr   Damp  Time(sec)
-------------------------------------------------------------------------------------------
               ***  Starting incremental Fock matrix formation  ***
    1    -342.1350692915550553     0.00e+00  3.46e-03  7.61e-02  3.46e-01  0.700   0.2
    2    -342.2315917349930032    -9.65e-02  2.07e-03  2.98e-02  1.23e-01  0.700   0.1
                               ***Turning on AO-DIIS***
    3    -342.2624582155937105    -3.09e-02  7.17e-04  1.12e-02  3.47e-02  0.700   0.1
    4    -342.2835572433160678    -2.11e-02  1.17e-03  1.76e-02  1.56e-02  0.000   0.1
    5    -342.3319745286072475    -4.84e-02  2.53e-04  4.29e-03  4.81e-03  0.000   0.1
                              *** Initializing SOSCF ***
---------------------------------------S-O-S-C-F--------------------------------------
Iteration    Energy (Eh)           Delta-E    RMSDP     MaxDP     MaxGrad    Time(sec)
--------------------------------------------------------------------------------------
    6    -342.3321259466162019    -1.51e-04  9.98e-05  1.69e-03  2.15e-03     0.1
               *** Restarting incremental Fock matrix formation ***
    7    -342.3321476126624248    -2.17e-05  7.69e-05  2.15e-03  4.19e-04     0.1
    8    -342.3321405198039429     7.09e-06  3.80e-05  6.68e-04  1.07e-03     0.1
    9    -342.3321511233874617    -1.06e-05  1.18e-05  2.51e-04  9.02e-05     0.1
   10    -342.3321509061412371     2.17e-07  6.98e-06  1.56e-04  1.39e-04     0.1
   11    -342.3321512362974772    -3.30e-07  5.59e-07  1.14e-05  4.13e-06     0.1
   12    -342.3321512358745622     4.23e-10  3.49e-07  6.04e-06  3.36e-06     0.1
                 **** Energy Check signals convergence ****

               *****************************************************
               *                     SUCCESS                       *
               *           SCF CONVERGED AFTER  12 CYCLES          *
               *****************************************************

Recomputing exchange energy using gridx3       ... done (    0.158 sec)
Old exchange energy                            :     -8.338242696 Eh
New exchange energy                            :     -8.338235499 Eh
Exchange energy change after final integration :      0.000007197 Eh
Total energy after final integration           :   -342.332144039 Eh
             **** ENERGY FILE WAS UPDATED (input.en.tmp) ****

----------------
TOTAL SCF ENERGY
----------------

Total Energy       :       -342.33214403861842 Eh           -9315.33122 eV

Components:
Nuclear Repulsion  :        246.35342371998181 Eh            6703.61746 eV
Electronic Energy  :       -588.68557495585628 Eh          -16018.94888 eV
One Electron Energy:       -955.21791549194393 Eh          -25992.80093 eV
Two Electron Energy:        366.53234053608759 Eh            9973.85205 eV

Virial components:
Potential Energy   :       -683.72106985208916 Eh          -18604.99617 eV
Kinetic Energy     :        341.38892581347068 Eh            9289.66495 eV
Virial Ratio       :          2.00276288465685

DFT components:
N(Alpha)           :       22.999954124743 electrons
N(Beta)            :       22.999954124743 electrons
N(Total)           :       45.999908249487 electrons
E(X)               :      -33.211587113031 Eh       
E(C)               :       -1.901396293502 Eh       
E(XC)              :      -35.112983406534 Eh       

---------------
SCF CONVERGENCE
---------------

  Last Energy change         ...   -4.2292e-10  Tolerance :   1.0000e-08
  Last MAX-Density change    ...    6.0449e-06  Tolerance :   1.0000e-07
  Last RMS-Density change    ...    3.4945e-07  Tolerance :   5.0000e-09
  Last DIIS Error            ...    2.1493e-03  Tolerance :   5.0000e-07
  Last Orbital Gradient      ...    3.3574e-06  Tolerance :   1.0000e-05
  Last Orbital Rotation      ...    2.2672e-06  Tolerance :   1.0000e-05


----------------
ORBITAL ENERGIES
----------------

  NO   OCC          E(Eh)            E(eV) 
   0   2.0000     -19.189100      -522.1620 
   1   2.0000     -19.189081      -522.1614 
   2   2.0000     -19.117230      -520.2063 
   3   2.0000     -10.352291      -281.7001 
   4   2.0000     -10.262643      -279.2607 
   5   2.0000     -10.262417      -279.2546 
   6   2.0000      -1.172526       -31.9061 
   7   2.0000      -1.060194       -28.8494 
   8   2.0000      -1.054822       -28.7032 
   9   2.0000      -0.799197       -21.7472 
  10   2.0000      -0.694125       -18.8881 
  11   2.0000      -0.621138       -16.9020 
  12   2.0000      -0.558519       -15.1981 
  13   2.0000      -0.532143       -14.4803 
  14   2.0000      -0.520037       -14.1509 
  15   2.0000      -0.457321       -12.4443 
  16   2.0000      -0.453392       -12.3374 
  17   2.0000      -0.450847       -12.2682 
  18   2.0000      -0.393839       -10.7169 
  19   2.0000      -0.390442       -10.6245 
  20   2.0000      -0.324947        -8.8423 
  21   2.0000      -0.322969        -8.7884 
  22   2.0000      -0.307863        -8.3774 
  23   0.0000      -0.019733        -0.5369 
  24   0.0000       0.000271         0.0074 
  25   0.0000       0.004792         0.1304 
  26   0.0000       0.010339         0.2813 
  27   0.0000       0.023243         0.6325 
  28   0.0000       0.045316         1.2331 
  29   0.0000       0.061769         1.6808 
  30   0.0000       0.069029         1.8784 
  31   0.0000       0.069756         1.8982 
  32   0.0000       0.080720         2.1965 
  33   0.0000       0.103628         2.8199 
*Only the first 10 virtual orbitals were printed.

                    ********************************
                    * MULLIKEN POPULATION ANALYSIS *
                    ********************************

-----------------------
MULLIKEN ATOMIC CHARGES
-----------------------
   0 O :   -0.131082
   1 O :   -0.131089
   2 O :   -0.330321
   3 C :   -0.220636
   4 C :   -0.220630
   5 C :    0.331947
   6 H :    0.173465
   7 H :    0.177435
   8 H :    0.173469
   9 H :    0.177442
Sum of atomic charges:   -0.0000000

--------------------------------
MULLIKEN REDUCED ORBITAL CHARGES
--------------------------------
  0 O s       :     3.766187  s :     3.766187
      pz      :     1.722620  p :     4.349429
      px      :     1.180610
      py      :     1.446199
      dz2     :     0.002159  d :     0.015465
      dxz     :     0.001587
      dyz     :     0.002236
      dx2y2   :     0.003891
      dxy     :     0.005592

  1 O s       :     3.766195  s :     3.766195
      pz      :     1.722670  p :     4.349429
      px      :     1.180506
      py      :     1.446254
      dz2     :     0.002159  d :     0.015465
      dxz     :     0.001587
      dyz     :     0.002236
      dx2y2   :     0.003889
      dxy     :     0.005595

  2 O s       :     3.934369  s :     3.934369
      pz      :     1.413524  p :     4.377311
      px      :     1.231880
      py      :     1.731907
      dz2     :     0.002192  d :     0.018641
      dxz     :     0.005540
      dyz     :     0.000022
      dx2y2   :     0.006863
      dxy     :     0.004023

  3 C s       :     3.280173  s :     3.280173
      pz      :     1.155499  p :     2.850145
      px      :     0.761075
      py      :     0.933570
      dz2     :     0.017395  d :     0.090319
      dxz     :     0.020520
      dyz     :     0.010091
      dx2y2   :     0.024625
      dxy     :     0.017686

  4 C s       :     3.280175  s :     3.280175
      pz      :     1.155551  p :     2.850141
      px      :     0.761072
      py      :     0.933518
      dz2     :     0.017390  d :     0.090314
      dxz     :     0.020522
      dyz     :     0.010092
      dx2y2   :     0.024624
      dxy     :     0.017686

  5 C s       :     2.972320  s :     2.972320
      pz      :     0.874808  p :     2.433947
      px      :     0.779749
      py      :     0.779389
      dz2     :     0.010527  d :     0.261786
      dxz     :     0.054099
      dyz     :     0.027696
      dx2y2   :     0.055306
      dxy     :     0.114158

  6 H s       :     0.804797  s :     0.804797
      pz      :     0.008169  p :     0.021738
      px      :     0.005967
      py      :     0.007602

  7 H s       :     0.801640  s :     0.801640
      pz      :     0.013073  p :     0.020924
      px      :     0.003068
      py      :     0.004783

  8 H s       :     0.804794  s :     0.804794
      pz      :     0.008172  p :     0.021738
      px      :     0.005966
      py      :     0.007600

  9 H s       :     0.801633  s :     0.801633
      pz      :     0.013072  p :     0.020924
      px      :     0.003070
      py      :     0.004783



                     *******************************
                     * LOEWDIN POPULATION ANALYSIS *
                     *******************************

----------------------
LOEWDIN ATOMIC CHARGES
----------------------
   0 O :   -0.106533
   1 O :   -0.106539
   2 O :   -0.117342
   3 C :    0.059302
   4 C :    0.059321
   5 C :   -0.016132
   6 H :    0.057343
   7 H :    0.056617
   8 H :    0.057345
   9 H :    0.056619

-------------------------------
LOEWDIN REDUCED ORBITAL CHARGES
-------------------------------
  0 O s       :     3.427860  s :     3.427860
      pz      :     1.749504  p :     4.653418
      px      :     1.335335
      py      :     1.568579
      dz2     :     0.003646  d :     0.025255
      dxz     :     0.002686
      dyz     :     0.002235
      dx2y2   :     0.006696
      dxy     :     0.009992

  1 O s       :     3.427869  s :     3.427869
      pz      :     1.749533  p :     4.653415
      px      :     1.335259
      py      :     1.568624
      dz2     :     0.003646  d :     0.025254
      dxz     :     0.002686
      dyz     :     0.002234
      dx2y2   :     0.006692
      dxy     :     0.009996

  2 O s       :     3.483144  s :     3.483144
      pz      :     1.427315  p :     4.607384
      px      :     1.473685
      py      :     1.706384
      dz2     :     0.004046  d :     0.026814
      dxz     :     0.005891
      dyz     :     0.000018
      dx2y2   :     0.012442
      dxy     :     0.004417

  3 C s       :     2.767828  s :     2.767828
      pz      :     1.090982  p :     2.982286
      px      :     0.850112
      py      :     1.041191
      dz2     :     0.035392  d :     0.190584
      dxz     :     0.042387
      dyz     :     0.019923
      dx2y2   :     0.055401
      dxy     :     0.037481

  4 C s       :     2.767835  s :     2.767835
      pz      :     1.091004  p :     2.982271
      px      :     0.850106
      py      :     1.041162
      dz2     :     0.035378  d :     0.190573
      dxz     :     0.042392
      dyz     :     0.019925
      dx2y2   :     0.055395
      dxy     :     0.037483

  5 C s       :     2.713579  s :     2.713579
      pz      :     0.803649  p :     2.763719
      px      :     1.052006
      py      :     0.908064
      dz2     :     0.035656  d :     0.538834
      dxz     :     0.094426
      dyz     :     0.052379
      dx2y2   :     0.123960
      dxy     :     0.232414

  6 H s       :     0.874366  s :     0.874366
      pz      :     0.025928  p :     0.068291
      px      :     0.018774
      py      :     0.023589

  7 H s       :     0.874878  s :     0.874878
      pz      :     0.042970  p :     0.068505
      px      :     0.011368
      py      :     0.014167

  8 H s       :     0.874364  s :     0.874364
      pz      :     0.025938  p :     0.068292
      px      :     0.018770
      py      :     0.023584

  9 H s       :     0.874875  s :     0.874875
      pz      :     0.042965  p :     0.068506
      px      :     0.011375
      py      :     0.014166



                      *****************************
                      * MAYER POPULATION ANALYSIS *
                      *****************************

  NA   - Mulliken gross atomic population
  ZA   - Total nuclear charge
  QA   - Mulliken gross atomic charge
  VA   - Mayer's total valence
  BVA  - Mayer's bonded valence
  FA   - Mayer's free valence

  ATOM       NA         ZA         QA         VA         BVA        FA
  0 O      8.1311     8.0000    -0.1311     1.8611     1.8611    -0.0000
  1 O      8.1311     8.0000    -0.1311     1.8611     1.8611     0.0000
  2 O      8.3303     8.0000    -0.3303     2.0341     2.0341     0.0000
  3 C      6.2206     6.0000    -0.2206     3.6841     3.6841    -0.0000
  4 C      6.2206     6.0000    -0.2206     3.6840     3.6840     0.0000
  5 C      5.6681     6.0000     0.3319     4.1667     4.1667     0.0000
  6 H      0.8265     1.0000     0.1735     0.9194     0.9194    -0.0000
  7 H      0.8226     1.0000     0.1774     0.9156     0.9156    -0.0000
  8 H      0.8265     1.0000     0.1735     0.9194     0.9194     0.0000
  9 H      0.8226     1.0000     0.1774     0.9156     0.9156     0.0000

  Mayer bond orders larger than 0.100000
B(  0-O ,  3-C ) :   1.0003 B(  0-O ,  5-C ) :   1.0835 B(  1-O ,  4-C ) :   1.0003 
B(  1-O ,  5-C ) :   1.0835 B(  2-O ,  5-C ) :   1.9710 B(  3-C ,  4-C ) :   0.8306 
B(  3-C ,  6-H ) :   0.9879 B(  3-C ,  7-H ) :   0.9615 B(  4-C ,  8-H ) :   0.9879 
B(  4-C ,  9-H ) :   0.9615 

-------
TIMINGS
-------

Total SCF time: 0 days 0 hours 0 min 2 sec 

Total time                  ....       2.596 sec
Sum of individual times     ....       2.574 sec  ( 99.1%)

SCF preparation             ....       0.844 sec  ( 32.5%)
Fock matrix formation       ....       1.538 sec  ( 59.2%)
  Startup                   ....       0.009 sec  (  0.6% of F)
  Split-RI-J                ....       0.152 sec  (  9.9% of F)
  Chain of spheres X        ....       1.021 sec  ( 66.4% of F)
  XC integration            ....       0.323 sec  ( 21.0% of F)
    XC Preparation          ....       0.000 sec  (  0.0% of XC)
    Basis function eval.    ....       0.064 sec  ( 19.7% of XC)
    Density eval.           ....       0.051 sec  ( 15.9% of XC)
    XC-Functional eval.     ....       0.012 sec  (  3.6% of XC)
    XC-Potential eval.      ....       0.062 sec  ( 19.0% of XC)
Diagonalization             ....       0.000 sec  (  0.0%)
Density matrix formation    ....       0.022 sec  (  0.9%)
Total Energy calculation    ....       0.018 sec  (  0.7%)
Population analysis         ....       0.010 sec  (  0.4%)
Orbital Transformation      ....       0.016 sec  (  0.6%)
Orbital Orthonormalization  ....       0.000 sec  (  0.0%)
DIIS solution               ....       0.082 sec  (  3.1%)
SOSCF solution              ....       0.043 sec  (  1.7%)
Finished LeanSCF after   2.6 sec

Maximum memory used throughout the entire LEANSCF-calculation: 16.6 MB
[ga00:4126484] 31 more processes have sent help message help-mpi-btl-openib.txt / error in device init
[ga00:4126484] Set MCA parameter "orte_base_help_aggregate" to 0 to see all help / error messages


-------------------------------------------------------------------------------
                          DFT DISPERSION CORRECTION                            
                                                                               
                              DFTD3 V3.1  Rev 1                                
                          USING Becke-Johnson damping                          
-------------------------------------------------------------------------------
The B3LYP functional is recognized
Active option DFTDOPT                   ...         4   

molecular C6(AA) [au] = 923.695337 


            DFT-D V3
 parameters
 s6 scaling factor         :     1.0000 
 a1 scaling factor         :     0.3981 
 s8 scaling factor         :     1.9889 
 a2 scaling factor         :     4.4211 
 ad hoc parameters k1-k3   :    16.0000     1.3333    -4.0000 

 Edisp/kcal,au: -7.301704776902  -0.011636005988 
 E6   /kcal   :  -3.502347432 
 E8   /kcal   :  -3.799357345 
 % E8         :  52.033839505 

-------------------------   ----------------
Dispersion correction           -0.011636006
-------------------------   ----------------


-------------------------   --------------------
FINAL SINGLE POINT ENERGY      -342.343780044607
-------------------------   --------------------

--------------------------------------------------------------------------
WARNING: There was an error initializing an OpenFabrics device.

  Local host:   ga00
  Local device: mlx5_0
--------------------------------------------------------------------------


           ************************************************************
           *        Program running with 32 parallel MPI-processes    *
           *              working on a common directory               *
           ************************************************************
------------------------------------------------------------------------------
                         ORCA SCF GRADIENT CALCULATION
------------------------------------------------------------------------------

Nuc. rep. gradient        (SHARK) ... done (  0.0 sec)
HCore & Overlap gradient  (SHARK) ... done (  0.0 sec)
Split-RIJ-J gradient      (SHARK) ... done (  0.1 sec)
COSX-gradient                     ... done (  0.7 sec)
XC gradient                       ... done (  0.1 sec)
Dispersion correction             ... done (  0.1 sec)

-------------------
DISPERSION GRADIENT
-------------------

   1   O   :    0.000097655    0.000184262    0.000013261
   2   O   :    0.000097611   -0.000184284   -0.000013299
   3   O   :    0.000438901   -0.000000048   -0.000000075
   4   C   :   -0.000192094    0.000127850    0.000027706
   5   C   :   -0.000192132   -0.000127806   -0.000027639
   6   C   :    0.000402835   -0.000000046   -0.000000076
   7   H   :   -0.000173359    0.000190119   -0.000048002
   8   H   :   -0.000152977    0.000148205    0.000147331
   9   H   :   -0.000173383   -0.000190080    0.000048069
  10   H   :   -0.000153058   -0.000148171   -0.000147277

Difference to translation invariance:
           :    0.0000000000   -0.0000000000    0.0000000000

Difference to rotation invariance:
           :    0.0000000000   -0.0000000000    0.0000000000

Norm of the Dispersion gradient    ...    0.0009063206
RMS gradient                       ...    0.0001654708
MAX gradient                       ...    0.0004389009

------------------
CARTESIAN GRADIENT
------------------

   1   O   :   -0.000369764   -0.002184315    0.000607752
   2   O   :   -0.000359160    0.002181777   -0.000601837
   3   O   :   -0.002872733    0.000000305    0.000004762
   4   C   :    0.001093328   -0.000688775   -0.000784949
   5   C   :    0.001073469    0.000688925    0.000782188
   6   C   :    0.000819370   -0.000001165   -0.000010269
   7   H   :    0.000363088   -0.000564666    0.000501807
   8   H   :   -0.000060533   -0.000125877   -0.000823111
   9   H   :    0.000367334    0.000566631   -0.000498718
  10   H   :   -0.000054400    0.000127162    0.000822375

Difference to translation invariance:
           :    0.0000000000    0.0000000000   -0.0000000000

Difference to rotation invariance:
           :   -0.0000189653   -0.0000001419    0.0000001870

Norm of the Cartesian gradient     ...    0.0051746618
RMS gradient                       ...    0.0009447597
MAX gradient                       ...    0.0028727328

-------
TIMINGS
-------

Total SCF gradient time     ....        1.023 sec

Densities                   ....       0.001 sec  (  0.1%)
One electron gradient       ....       0.017 sec  (  1.7%)
RI-J Coulomb gradient       ....       0.091 sec  (  8.9%)
COSX gradient               ....       0.723 sec  ( 70.6%)
XC gradient                 ....       0.126 sec  ( 12.4%)

Maximum memory used throughout the entire SCFGRAD-calculation: 29.6 MB
[ga00:4126639] 31 more processes have sent help message help-mpi-btl-openib.txt / error in device init
[ga00:4126639] Set MCA parameter "orte_base_help_aggregate" to 0 to see all help / error messages
------------------------------------------------------------------------------
                         ORCA GEOMETRY RELAXATION STEP
------------------------------------------------------------------------------

Reading the OPT-File                    .... done
Getting information on internals        .... done
Copying old internal coords+grads       .... done
Making the new internal coordinates     .... (2022 redundants) done
Validating the new internal coordinates .... (2022 redundants) done
Calculating the B-matrix                .... done
Calculating the G,G- and P matrices     .... done
Transforming gradient to internals      .... done
Projecting the internal gradient        .... done
Number of atoms                         ....  10
Number of internal coordinates          ....  43
Current Energy                          ....  -342.343780045 Eh
Current gradient norm                   ....     0.005174662 Eh/bohr
Maximum allowed component of the step   ....  0.300
Current trust radius                    ....  0.300
Evaluating the initial hessian          ....  (Almloef) done
Projecting the Hessian                  .... done
Forming the augmented Hessian           .... done
Diagonalizing the augmented Hessian     .... done
Last element of RFO vector              ....  0.999543032
Lowest eigenvalues of augmented Hessian:
 -0.000062423  0.016382735  0.023925399  0.029042622  0.100314050
Length of the computed step             ....  0.030241725
The final length of the internal step   ....  0.030241725
Converting the step to Cartesian space:
 Initial RMS(Int)=    0.0046118198
Transforming coordinates:
 Iter   0:  RMS(Cart)=    0.0049143883 RMS(Int)=    0.0046078099
done
Storing new coordinates                 .... done

                                .--------------------.
          ----------------------|Geometry convergence|-------------------------
          Item                value                   Tolerance       Converged
          ---------------------------------------------------------------------
          RMS gradient        0.0008037668            0.0001000000      NO
          MAX gradient        0.0028727335            0.0003000000      NO
          RMS step            0.0046118198            0.0020000000      NO
          MAX step            0.0099568705            0.0040000000      NO
          ........................................................
          Max(Bonds)      0.0027      Max(Angles)    0.08
          Max(Dihed)        0.57      Max(Improp)    0.00
          ---------------------------------------------------------------------

The optimization has not yet converged - more geometry cycles are needed


    ---------------------------------------------------------------------------
                         Redundant Internal Coordinates
                            (Angstroem and degrees)

        Definition                    Value    dE/dq     Step     New-Value
    ----------------------------------------------------------------------------
     1. B(C   3,O   0)                1.4333 -0.001528  0.0017    1.4350   
     2. B(C   4,C   3)                1.5290 -0.002060  0.0027    1.5317   
     3. B(C   4,O   1)                1.4333 -0.001544  0.0017    1.4350   
     4. B(C   5,O   2)                1.1868 -0.002873  0.0013    1.1881   
     5. B(C   5,O   1)                1.3584 -0.001911  0.0017    1.3601   
     6. B(C   5,O   0)                1.3584 -0.001894  0.0017    1.3601   
     7. B(H   6,C   3)                1.0877 -0.000826  0.0012    1.0889   
     8. B(H   7,C   3)                1.0916 -0.000787  0.0012    1.0927   
     9. B(H   8,C   4)                1.0877 -0.000827  0.0012    1.0889   
    10. B(H   9,C   4)                1.0916 -0.000788  0.0012    1.0927   
    11. A(C   3,O   0,C   5)          109.71  0.000168   -0.05    109.66   
    12. A(C   4,O   1,C   5)          109.71  0.000118   -0.05    109.66   
    13. A(O   0,C   3,H   6)          108.78  0.000213   -0.04    108.74   
    14. A(O   0,C   3,H   7)          108.75  0.000094   -0.02    108.73   
    15. A(O   0,C   3,C   4)          102.93 -0.000098   -0.07    102.86   
    16. A(C   4,C   3,H   7)          112.66 -0.000088    0.04    112.71   
    17. A(H   6,C   3,H   7)          109.73 -0.000069    0.05    109.78   
    18. A(C   4,C   3,H   6)          113.63 -0.000029    0.03    113.66   
    19. A(C   3,C   4,H   8)          113.63 -0.000111    0.04    113.67   
    20. A(O   1,C   4,H   8)          108.78  0.000199   -0.05    108.74   
    21. A(O   1,C   4,C   3)          102.93 -0.000013   -0.08    102.85   
    22. A(H   8,C   4,H   9)          109.74 -0.000224    0.07    109.80   
    23. A(C   3,C   4,H   9)          112.66 -0.000145    0.05    112.71   
    24. A(O   1,C   4,H   9)          108.74  0.000356   -0.04    108.70   
    25. A(O   1,C   5,O   2)          124.90  0.000040   -0.01    124.90   
    26. A(O   0,C   5,O   2)          124.90  0.000040   -0.01    124.90   
    27. A(O   0,C   5,O   1)          110.19 -0.000079    0.01    110.20   
    28. D(C   4,C   3,O   0,C   5)    -17.65  0.000179   -0.45    -18.10   
    29. D(H   6,C   3,O   0,C   5)   -138.48  0.000165   -0.42   -138.90   
    30. D(H   7,C   3,O   0,C   5)    102.05  0.000069   -0.44    101.61   
    31. D(H   8,C   4,C   3,H   7)     21.27 -0.000099    0.49     21.75   
    32. D(H   9,C   4,O   1,C   5)    102.05  0.000135   -0.45    101.60   
    33. D(O   1,C   4,C   3,O   0)     20.76 -0.000262    0.53     21.29   
    34. D(H   8,C   4,O   1,C   5)   -138.48  0.000188   -0.42   -138.90   
    35. D(O   1,C   4,C   3,H   7)    -96.18 -0.000274    0.57    -95.61   
    36. D(H   8,C   4,C   3,O   0)    138.22 -0.000087    0.44    138.66   
    37. D(H   8,C   4,C   3,H   6)   -104.33  0.000093    0.36   -103.97   
    38. D(O   1,C   4,C   3,H   6)    138.22 -0.000083    0.45    138.67   
    39. D(C   3,C   4,O   1,C   5)    -17.65  0.000146   -0.44    -18.09   
    40. D(O   0,C   5,O   1,C   4)      7.36 -0.000059    0.19      7.54   
    41. D(O   2,C   5,O   0,C   3)   -172.64 -0.000073    0.18   -172.46   
    42. D(O   1,C   5,O   0,C   3)      7.36 -0.000096    0.19      7.55   
    43. D(O   2,C   5,O   1,C   4)   -172.65 -0.000081    0.20   -172.45   
    ----------------------------------------------------------------------------

Geometry step timings:
Preparation and reading OPT file:      0.000 s (11.509 %)
Internal coordinates            :      0.000 s ( 2.128 %)
B/P matrices and projection     :      0.000 s (24.178 %)
Hessian update/contruction      :      0.000 s ( 8.607 %)
Making the step                 :      0.000 s (18.859 %)
Converting the step to Cartesian:      0.000 s ( 3.868 %)
Storing new data                :      0.000 s ( 1.644 %)
Checking convergence            :      0.000 s ( 0.193 %)
Final printing                  :      0.000 s (28.240 %)
Total time                      :      0.001 s
--------------------------------------------------------------------------
WARNING: There was an error initializing an OpenFabrics device.

  Local host:   ga00
  Local device: mlx5_0
--------------------------------------------------------------------------
[ga00:4126787] 31 more processes have sent help message help-mpi-btl-openib.txt / error in device init
[ga00:4126787] Set MCA parameter "orte_base_help_aggregate" to 0 to see all help / error messages

Time for energy+gradient        :      8.277 s
Time for complete geometry iter :      9.420 s

         *************************************************************
         *                GEOMETRY OPTIMIZATION CYCLE   2            *
         *************************************************************
---------------------------------
CARTESIAN COORDINATES (ANGSTROEM)
---------------------------------
  O      0.007120    1.115467   -0.003854
  O      0.006799   -1.115479    0.003915
  O      1.973189   -0.000283   -0.000411
  C     -1.367787    0.745766    0.175179
  C     -1.368144   -0.745481   -0.174538
  C      0.785108   -0.000117   -0.000087
  H     -1.982193    1.350688   -0.489930
  H     -1.649741    0.935563    1.213701
  H     -1.982324   -1.350354    0.490821
  H     -1.650026   -0.935170   -1.213095

----------------------------
CARTESIAN COORDINATES (A.U.)
----------------------------
  NO LB      ZA    FRAG     MASS         X           Y           Z
   0 O     8.0000    0    15.999    0.013455    2.107928   -0.007283
   1 O     8.0000    0    15.999    0.012848   -2.107950    0.007398
   2 O     8.0000    0    15.999    3.728787   -0.000534   -0.000778
   3 C     6.0000    0    12.011   -2.584744    1.409293    0.331041
   4 C     6.0000    0    12.011   -2.585418   -1.408755   -0.329829
   5 C     6.0000    0    12.011    1.483640   -0.000221   -0.000165
   6 H     1.0000    0     1.008   -3.745802    2.552430   -0.925834
   7 H     1.0000    0     1.008   -3.117558    1.767958    2.293562
   8 H     1.0000    0     1.008   -3.746050   -2.551799    0.927517
   9 H     1.0000    0     1.008   -3.118098   -1.767215   -2.292418

--------------------------------
INTERNAL COORDINATES (ANGSTROEM)
--------------------------------
 O      0   0   0     0.000000000000     0.00000000     0.00000000
 O      1   0   0     2.230959972050     0.00000000     0.00000000
 O      1   2   0     2.260605337108    60.43309536     0.00000000
 C      1   2   3     1.434957737649    75.03609445   187.35357578
 C      2   1   3     1.434995644392    75.04072974   187.35481586
 C      3   1   2     1.188080714951    29.56723222     0.00000000
 H      4   1   2     1.088942533744   108.74057851   225.56374763
 H      4   1   2     1.092724666069   108.72683647   106.06851810
 H      5   2   1     1.088939823392   108.73592012   225.55995835
 H      5   2   1     1.092721967345   108.69935455   106.05459798

---------------------------
INTERNAL COORDINATES (A.U.)
---------------------------
 O      0   0   0     0.000000000000     0.00000000     0.00000000
 O      1   0   0     4.215903362916     0.00000000     0.00000000
 O      1   2   0     4.271924984016    60.43309536     0.00000000
 C      1   2   3     2.711677137909    75.03609445   187.35357578
 C      2   1   3     2.711748771271    75.04072974   187.35481586
 C      3   1   2     2.245147176251    29.56723222     0.00000000
 H      4   1   2     2.057803164355   108.74057851   225.56374763
 H      4   1   2     2.064950358651   108.72683647   106.06851810
 H      5   2   1     2.057798042531   108.73592012   225.55995835
 H      5   2   1     2.064945258801   108.69935455   106.05459798

--------------------------------------------------------------------------
WARNING: There was an error initializing an OpenFabrics device.

  Local host:   ga00
  Local device: mlx5_0
--------------------------------------------------------------------------


           ************************************************************
           *        Program running with 32 parallel MPI-processes    *
           *              working on a common directory               *
           ************************************************************
------------------------------------------------------------------------------
                   ___                                                        
                  /   \      - P O W E R E D   B Y -                         
                 /     \                                                     
                 |  |  |   _    _      __       _____    __    __             
                 |  |  |  | |  | |    /  \     |  _  \  |  |  /  |          
                  \  \/   | |  | |   /    \    | | | |  |  | /  /          
                 / \  \   | |__| |  /  /\  \   | |_| |  |  |/  /          
                |  |  |   |  __  | /  /__\  \  |    /   |      \           
                |  |  |   | |  | | |   __   |  |    \   |  |\   \          
                \     /   | |  | | |  |  |  |  | |\  \  |  | \   \       
                 \___/    |_|  |_| |__|  |__|  |_| \__\ |__|  \__/        
                                                                              
                      - O R C A' S   B I G   F R I E N D -                    
                                      &                                       
                       - I N T E G R A L  F E E D E R -                       
                                                                              
 v1 FN, 2020, v2 2021, v3 2022-2024                                           
------------------------------------------------------------------------------


----------------------
SHARK INTEGRAL PACKAGE
----------------------

Number of atoms                             ...     10
Number of basis functions                   ...    160
Number of shells                            ...     80
Maximum angular momentum                    ...      2
Integral batch strategy                     ... SHARK/LIBINT Hybrid
RI-J (if used) integral strategy            ... SPLIT-RIJ (Revised 2003 algorithm where possible)
Printlevel                                  ...      1
Contraction scheme used                     ... SEGMENTED contraction
Prescreening option                         ... SCHWARTZ
   Thresh                                   ... 2.500e-11
   Tcut                                     ... 2.500e-12
   Tpresel                                  ... 2.500e-12 
Coulomb Range Separation                    ... NOT USED
Exchange Range Separation                   ... NOT USED
Multipole approximations                    ... NOT USED
Finite Nucleus Model                        ... NOT USED
CABS basis                                  ... NOT available
Auxiliary Coulomb fitting basis             ... AVAILABLE
   # of basis functions in Aux-J            ...    338
   # of shells in Aux-J                     ...    110
   Maximum angular momentum in Aux-J        ...      4
Auxiliary J/K fitting basis                 ... NOT available
Auxiliary Correlation fitting basis         ... NOT available
Auxiliary 'external' fitting basis          ... NOT available

Checking pre-screening integrals            ... done (  0.0 sec) Dimension = 80
Check shell pair data                       ... done (  0.0 sec)
Shell pair information
Shell pair cut-off parameter TPreSel        ...   2.5e-12
Total number of shell pairs                 ...      3240
Shell pairs after pre-screening             ...      3136
Total number of primitive shell pairs       ...     10291
Primitive shell pairs kept                  ...      7880
          la=0 lb=0:   1029 shell pairs
          la=1 lb=0:   1250 shell pairs
          la=1 lb=1:    400 shell pairs
          la=2 lb=0:    268 shell pairs
          la=2 lb=1:    168 shell pairs
          la=2 lb=2:     21 shell pairs

Calculating one electron integrals          ... done (  0.0 sec)
Calculating RI/J V-Matrix + Cholesky decomp.... done (  0.0 sec)
Calculating Nuclear repulsion               ... done (  0.0 sec) ENN=    246.075314924610 Eh

Diagonalization of the overlap matrix:
Smallest eigenvalue                        ... 7.627e-05
Time for diagonalization                   ...    0.002 sec
Threshold for overlap eigenvalues          ... 1.000e-07
Number of eigenvalues below threshold      ... 0
Time for construction of square roots      ...    0.001 sec
Total time needed                          ...    0.004 sec

-------------------
DFT GRID GENERATION
-------------------

General Integration Accuracy     IntAcc      ... 4.388
Radial Grid Type                 RadialGrid  ... OptM3 with GC (2021)
Angular Grid (max. ang.)         AngularGrid ... 4 (Lebedev-302)
Angular grid pruning method      GridPruning ... 4 (adaptive)
Weight generation scheme         WeightScheme... mBecke (2022)
Basis function cutoff            BFCut       ... 1.0000e-11
Integration weight cutoff        WCut        ... 1.0000e-14
Partially contracted basis set               ... off
Rotationally invariant grid construction     ... off
Angular grids for H and He will be reduced by one unit
Diffuse basis detected: some atoms will have their outermost
                        angular grid increased by 1.

Total number of grid points                  ...    51818
Total number of batches                      ...      815
Average number of points per batch           ...       63
Average number of grid points per atom       ...     5182

--------------------
COSX GRID GENERATION
--------------------

GRIDX 1
-------
General Integration Accuracy     IntAcc      ... 3.816
Radial Grid Type                 RadialGrid  ... OptM3 with GC (2021)
Angular Grid (max. ang.)         AngularGrid ... 1 (Lebedev-50)
Angular grid pruning method      GridPruning ... 4 (adaptive)
Weight generation scheme         WeightScheme... mBecke (2022)
Basis function cutoff            BFCut       ... 1.0000e-11
Integration weight cutoff        WCut        ... 1.0000e-14
Partially contracted basis set               ... on
Rotationally invariant grid construction     ... off
Angular grids for H and He will be reduced by one unit
Diffuse basis detected: some atoms will have their outermost
                        angular grid increased by 1.

Total number of grid points                  ...     6516
Total number of batches                      ...       56
Average number of points per batch           ...      116
Average number of grid points per atom       ...      652
UseSFitting                                  ... on

GRIDX 2
-------
General Integration Accuracy     IntAcc      ... 4.020
Radial Grid Type                 RadialGrid  ... OptM3 with GC (2021)
Angular Grid (max. ang.)         AngularGrid ... 2 (Lebedev-110)
Angular grid pruning method      GridPruning ... 4 (adaptive)
Weight generation scheme         WeightScheme... mBecke (2022)
Basis function cutoff            BFCut       ... 1.0000e-11
Integration weight cutoff        WCut        ... 1.0000e-14
Partially contracted basis set               ... on
Rotationally invariant grid construction     ... off
Angular grids for H and He will be reduced by one unit
Diffuse basis detected: some atoms will have their outermost
                        angular grid increased by 1.

Total number of grid points                  ...    16465
Total number of batches                      ...      135
Average number of points per batch           ...      121
Average number of grid points per atom       ...     1646
UseSFitting                                  ... on

GRIDX 3
-------
General Integration Accuracy     IntAcc      ... 4.338
[...]
--------------------------------
  0 O s       :     3.766603  s :     3.766603
      pz      :     1.719245  p :     4.348077
      px      :     1.182394
      py      :     1.446438
      dz2     :     0.002143  d :     0.015360
      dxz     :     0.001613
      dyz     :     0.002235
      dx2y2   :     0.003832
      dxy     :     0.005537

  1 O s       :     3.766630  s :     3.766630
      pz      :     1.719318  p :     4.348093
      px      :     1.182281
      py      :     1.446495
      dz2     :     0.002143  d :     0.015358
      dxz     :     0.001612
      dyz     :     0.002235
      dx2y2   :     0.003829
      dxy     :     0.005538

  2 O s       :     3.935226  s :     3.935226
      pz      :     1.412157  p :     4.376478
      px      :     1.231739
      py      :     1.732582
      dz2     :     0.002185  d :     0.018572
      dxz     :     0.005517
      dyz     :     0.000022
      dx2y2   :     0.006838
      dxy     :     0.004011

  3 C s       :     3.284634  s :     3.284634
      pz      :     1.151948  p :     2.848799
      px      :     0.764847
      py      :     0.932004
      dz2     :     0.017926  d :     0.089874
      dxz     :     0.020015
      dyz     :     0.009942
      dx2y2   :     0.024306
      dxy     :     0.017686

  4 C s       :     3.284640  s :     3.284640
      pz      :     1.152012  p :     2.848776
      px      :     0.764824
      py      :     0.931940
      dz2     :     0.017920  d :     0.089863
      dxz     :     0.020012
      dyz     :     0.009943
      dx2y2   :     0.024303
      dxy     :     0.017684

  5 C s       :     2.975566  s :     2.975566
      pz      :     0.874258  p :     2.432656
      px      :     0.777634
      py      :     0.780764
      dz2     :     0.010585  d :     0.260086
      dxz     :     0.053654
      dyz     :     0.027157
      dx2y2   :     0.055156
      dxy     :     0.113533

  6 H s       :     0.804210  s :     0.804210
      pz      :     0.007961  p :     0.021761
      px      :     0.006187
      py      :     0.007613

  7 H s       :     0.800548  s :     0.800548
      pz      :     0.013206  p :     0.020845
      px      :     0.002914
      py      :     0.004725

  8 H s       :     0.804199  s :     0.804199
      pz      :     0.007965  p :     0.021761
      px      :     0.006185
      py      :     0.007612

  9 H s       :     0.800539  s :     0.800539
      pz      :     0.013205  p :     0.020845
      px      :     0.002916
      py      :     0.004725



                     *******************************
                     * LOEWDIN POPULATION ANALYSIS *
                     *******************************

----------------------
LOEWDIN ATOMIC CHARGES
----------------------
   0 O :   -0.110081
   1 O :   -0.110124
   2 O :   -0.117678
   3 C :    0.060033
   4 C :    0.060076
   5 C :   -0.012858
   6 H :    0.057923
   7 H :    0.057389
   8 H :    0.057927
   9 H :    0.057391

-------------------------------
LOEWDIN REDUCED ORBITAL CHARGES
-------------------------------
  0 O s       :     3.431602  s :     3.431602
      pz      :     1.748514  p :     4.653436
      px      :     1.336202
      py      :     1.568719
      dz2     :     0.003611  d :     0.025043
      dxz     :     0.002719
      dyz     :     0.002250
      dx2y2   :     0.006580
      dxy     :     0.009884

  1 O s       :     3.431645  s :     3.431645
      pz      :     1.748563  p :     4.653439
      px      :     1.336117
      py      :     1.568759
      dz2     :     0.003610  d :     0.025039
      dxz     :     0.002718
      dyz     :     0.002250
      dx2y2   :     0.006576
      dxy     :     0.009886

  2 O s       :     3.484582  s :     3.484582
      pz      :     1.426033  p :     4.606369
      px      :     1.473060
      py      :     1.707277
      dz2     :     0.004037  d :     0.026727
      dxz     :     0.005862
      dyz     :     0.000017
      dx2y2   :     0.012409
      dxy     :     0.004401

  3 C s       :     2.769961  s :     2.769961
      pz      :     1.088538  p :     2.980521
      px      :     0.851220
      py      :     1.040763
      dz2     :     0.036564  d :     0.189485
      dxz     :     0.041241
      dyz     :     0.019614
      dx2y2   :     0.054615
      dxy     :     0.037450

  4 C s       :     2.769982  s :     2.769982
      pz      :     1.088565  p :     2.980484
      px      :     0.851192
      py      :     1.040727
      dz2     :     0.036549  d :     0.189458
      dxz     :     0.041238
      dyz     :     0.019617
      dx2y2   :     0.054607
      dxy     :     0.037447

  5 C s       :     2.715073  s :     2.715073
      pz      :     0.802931  p :     2.762384
      px      :     1.051805
      py      :     0.907648
      dz2     :     0.035629  d :     0.535401
      dxz     :     0.093957
      dyz     :     0.051367
      dx2y2   :     0.123502
      dxy     :     0.230947

  6 H s       :     0.873914  s :     0.873914
      pz      :     0.025199  p :     0.068163
      px      :     0.019338
      py      :     0.023626

  7 H s       :     0.874197  s :     0.874197
      pz      :     0.043452  p :     0.068414
      px      :     0.010946
      py      :     0.014016

  8 H s       :     0.873910  s :     0.873910
      pz      :     0.025210  p :     0.068163
      px      :     0.019331
      py      :     0.023622

  9 H s       :     0.874194  s :     0.874194
      pz      :     0.043449  p :     0.068415
      px      :     0.010951
      py      :     0.014015



                      *****************************
                      * MAYER POPULATION ANALYSIS *
                      *****************************

  NA   - Mulliken gross atomic population
  ZA   - Total nuclear charge
  QA   - Mulliken gross atomic charge
  VA   - Mayer's total valence
  BVA  - Mayer's bonded valence
  FA   - Mayer's free valence

  ATOM       NA         ZA         QA         VA         BVA        FA
  0 O      8.1300     8.0000    -0.1300     1.8575     1.8575     0.0000
  1 O      8.1301     8.0000    -0.1301     1.8574     1.8574     0.0000
  2 O      8.3303     8.0000    -0.3303     2.0358     2.0358     0.0000
  3 C      6.2233     6.0000    -0.2233     3.6786     3.6786    -0.0000
  4 C      6.2233     6.0000    -0.2233     3.6786     3.6786    -0.0000
  5 C      5.6683     6.0000     0.3317     4.1635     4.1635     0.0000
  6 H      0.8260     1.0000     0.1740     0.9212     0.9212     0.0000
  7 H      0.8214     1.0000     0.1786     0.9164     0.9164    -0.0000
  8 H      0.8260     1.0000     0.1740     0.9213     0.9213     0.0000
  9 H      0.8214     1.0000     0.1786     0.9164     0.9164    -0.0000

  Mayer bond orders larger than 0.100000
B(  0-O ,  3-C ) :   0.9963 B(  0-O ,  5-C ) :   1.0842 B(  1-O ,  4-C ) :   0.9963 
B(  1-O ,  5-C ) :   1.0843 B(  2-O ,  5-C ) :   1.9723 B(  3-C ,  4-C ) :   0.8332 
B(  3-C ,  6-H ) :   0.9877 B(  3-C ,  7-H ) :   0.9607 B(  4-C ,  8-H ) :   0.9877 
B(  4-C ,  9-H ) :   0.9607 

-------
TIMINGS
-------

Total SCF time: 0 days 0 hours 0 min 1 sec 

Total time                  ....       1.498 sec
Sum of individual times     ....       1.475 sec  ( 98.5%)

SCF preparation             ....       0.845 sec  ( 56.4%)
Fock matrix formation       ....       0.561 sec  ( 37.5%)
  Startup                   ....       0.004 sec  (  0.6% of F)
  Split-RI-J                ....       0.039 sec  (  6.9% of F)
  Chain of spheres X        ....       0.431 sec  ( 76.8% of F)
  XC integration            ....       0.080 sec  ( 14.3% of F)
    Basis function eval.    ....       0.015 sec  ( 19.1% of XC)
    Density eval.           ....       0.013 sec  ( 16.0% of XC)
    XC-Functional eval.     ....       0.003 sec  (  3.6% of XC)
    XC-Potential eval.      ....       0.017 sec  ( 21.7% of XC)
Diagonalization             ....       0.000 sec  (  0.0%)
Density matrix formation    ....       0.005 sec  (  0.3%)
Total Energy calculation    ....       0.006 sec  (  0.4%)
Population analysis         ....       0.019 sec  (  1.2%)
Orbital Transformation      ....       0.008 sec  (  0.6%)
Orbital Orthonormalization  ....       0.000 sec  (  0.0%)
DIIS solution               ....       0.011 sec  (  0.7%)
SOSCF solution              ....       0.020 sec  (  1.3%)
Finished LeanSCF after   1.5 sec

Maximum memory used throughout the entire LEANSCF-calculation: 17.4 MB
[ga00:4131947] 31 more processes have sent help message help-mpi-btl-openib.txt / error in device init
[ga00:4131947] Set MCA parameter "orte_base_help_aggregate" to 0 to see all help / error messages


-------------------------------------------------------------------------------
                          DFT DISPERSION CORRECTION                            
                                                                               
                              DFTD3 V3.1  Rev 1                                
                          USING Becke-Johnson damping                          
-------------------------------------------------------------------------------
The B3LYP functional is recognized
Active option DFTDOPT                   ...         4   

molecular C6(AA) [au] = 923.726944 


            DFT-D V3
 parameters
 s6 scaling factor         :     1.0000 
 a1 scaling factor         :     0.3981 
 s8 scaling factor         :     1.9889 
 a2 scaling factor         :     4.4211 
 ad hoc parameters k1-k3   :    16.0000     1.3333    -4.0000 

 Edisp/kcal,au: -7.304374740934  -0.011640260847 
 E6   /kcal   :  -3.503491006 
 E8   /kcal   :  -3.800883735 
 % E8         :  52.035716533 

-------------------------   ----------------
Dispersion correction           -0.011640261
-------------------------   ----------------


-------------------------   --------------------
FINAL SINGLE POINT ENERGY      -342.343857978297
-------------------------   --------------------

                                *** OPTIMIZATION RUN DONE ***

--------------------------------------------------------------------------
WARNING: There was an error initializing an OpenFabrics device.

  Local host:   ga00
  Local device: mlx5_0
--------------------------------------------------------------------------


           ************************************************************
           *        Program running with 32 parallel MPI-processes    *
           *              working on a common directory               *
           ************************************************************

------------------------------------------------------------------------------
                              ORCA PROPERTY CALCULATIONS
------------------------------------------------------------------------------

GBWName                                 ... input.gbw
Number of atoms                         ...     10
Number of basis functions               ...    160
Max core memory                         ...   5000 MB

Electric properties:
Dipole moment                           ... YES
Quadrupole moment                       ...  NO
Static polarizability (Dipole/Dipole)   ...  NO
Static polarizability (Dipole/Quad.)    ...  NO
Static polarizability (Quad./Quad.)     ...  NO
Static polarizability (Velocity)        ...  NO

Atomic electric properties:
Dipole moment                           ...  NO
Quadrupole moment                       ...  NO
Static polarizability                   ...  NO

Choice of electric origin               ... Center of mass
Position of electric origin             ...     0.017401    -0.000038     0.000069

General magnetic properties:
Magnetizability                         ...  NO

EPR properties:
g-Tensor (aka g-matrix)                 ...  NO
Zero-Field splitting spin-orbit         ...  NO
Zero-field splitting spin-spin          ...  NO
Hyperfine couplings                     ...  NO (   0 nuclei)
Quadrupole couplings                    ...  NO (   0 nuclei)
Contact density                         ...  NO (   0 nuclei)

NMR properties:
Chemical shifts                         ...  NO (   0 nuclei)
Spin-rotation constants                 ...  NO (   0 nuclei)
Spin-spin couplings                     ...  NO (   0 nuclei,    0 pairs)

Choice of magnetic origin               ... GIAO
Position of magnetic origin             ...     0.000000     0.000000     0.000000

Properties with geometric perturbations:
SCF Hessian                             ...  NO
IR spectrum                             ...  NO
VCD spectrum                            ...  NO
X-ray spectroscopy properties:
SCF XES/XAS/RIXS spectra                ...  NO


-------------
DIPOLE MOMENT
-------------

Method             : SCF
Type of density    : Electron Density
Multiplicity       :   1
Irrep              :   0
Energy             :  -342.3322177174508170 Eh
Relativity type    : 
Basis              : AO
                                X                 Y                 Z
Electronic contribution:      4.588500644      -0.000474257      -0.000903303
Nuclear contribution   :     -6.805304878       0.000738588       0.001254738
                        -----------------------------------------
Total Dipole Moment    :     -2.216804234       0.000264331       0.000351435
                        -----------------------------------------
Magnitude (a.u.)       :      2.216804277
Magnitude (Debye)      :      5.634668678



--------------------
Rotational spectrum 
--------------------
 
Rotational constants in cm-1:             0.268465             0.127768             0.090357 
Rotational constants in MHz :          8048.364335          3830.378624          2708.849438 

Dipole components along the rotational axes: 
x,y,z [a.u.] :    -2.216804     0.000040    -0.000007 
x,y,z [Debye]:    -5.634669     0.000101    -0.000019 

 

Dipole moment calculation done in   0.0 sec 

Maximum memory used throughout the entire PROP-calculation: 8.6 MB
[ga00:4132095] 31 more processes have sent help message help-mpi-btl-openib.txt / error in device init
[ga00:4132095] Set MCA parameter "orte_base_help_aggregate" to 0 to see all help / error messages
--------------------------------------------------------------------------
WARNING: There was an error initializing an OpenFabrics device.

  Local host:   ga00
  Local device: mlx5_0
--------------------------------------------------------------------------
[ga00:4132237] [[12811,0],0] ORTE_ERROR_LOG: Data unpack would read past end of buffer in file util/show_help.c at line 513
[ga00:4132237] 30 more processes have sent help message help-mpi-btl-openib.txt / error in device init
[ga00:4132237] Set MCA parameter "orte_base_help_aggregate" to 0 to see all help / error messages

--------------------------------
SUGGESTED CITATIONS FOR THIS RUN
--------------------------------

Below you find a list of papers that are relevant to this ORCA run
We neither can nor want to force you to cite these papers, but we appreciate if you do
You receive ORCA, which is the product of decades of hard work by many enthusiastic individuals, for free
The only thing we kindly ask in return is that you cite our papers,
We deeply appreciate it, if you show your appreciation for ORCA by not just citing the generic ORCA reference.

Please note that relegating all ORCA citations to the supporting information does *not* help us.
SI sections are not indexed - citations you put there will not count into any citation statistics
But we need these citations in order to attract the funding resources that allow us to do what we are doing

Therefore, if you are a happy ORCA user, please consider citing a few of the papers listed below in the main body of your paper

In addition to the list printed below, the program has created the file input.bibtex that contains the list in bibtex format
You can import this file easily into all common literature databanks and citation aid programs


List of essential papers. We consider these as the minimum necessary citations

  1. Neese,F.
     Software update: the ORCA program system, version 5.0
     WIRES Comput. Molec. Sci., 2022 12(1)e1606
     doi.org/10.1002/wcms.1606

List of papers to cite with high priority. The work reported in these papers was absolutely
necessary for this run to complete.
Our perspective: the developers of density functionals and basis sets usually get cited in chemistry papers
Good! But without the algorithms to do something with them, the functionals or basis sets would not do anything.
Hence, in our opinion, the algorithm design and method developments papers are equally worthy of getting cited

  1. Neese,F.
     An improvement of the resolution of the identity approximation for the formation of the Coulomb matrix
     J. Comp. Chem., 2003 24(14)1740-1747
     doi.org/10.1002/jcc.10318
  2. Neese,F.; Wennmohs,F.; Hansen,A.; Becker,U.
     Efficient, approximate and parallel Hartree-Fock and hybrid DFT calculations. A 'chain-of-spheres' algorithm for the Hartree-Fock exchange
     Chem. Phys., 2009 356(1-3)98-109
     doi.org/10.1016/j.chemphys.2008.10.036
  3. Helmich-Paris,B.; de Souza,B.; Neese,F.; Izsák,R.
     An improved chain of spheres for exchange algorithm
     J. Chem. Phys., 2021 155 104109
     doi.org/doi: 10.1063/5.0058766.
  4. Neese,F.
     The SHARK Integral Generation and Digestion System
     J. Comp. Chem., 2022  1-16
     doi.org/10.1002/jcc.26942
  5. Grimme,S.; Antony,J.; Ehrlich,S.; Krieg,H.
     A consistent and accurate ab initio parametrization of density functional dispersion correction (DFT-D) for the 94 elements H-Pu
     J. Chem. Phys., 2010 132 154104
     doi.org/10.1063/1.3382344
  6. Grimme,S.; Ehrlich,S.; Goerigk,L.
     Effect of the damping function in dispersion corrected density functional theory
     J. Comput. Chem., 2011 32(7)1456-1465
     doi.org/10.1002/jcc.21759

List of suggested additional citations. These are papers that are important in the 'surrounding' of 
of this run, or papers that preceded the highly important papers. If you like your results we are grateful for a citation.

  1. Izsak,R.; Neese,F.
     An overlap fitted chain of spheres exchange method
     J. Chem. Phys., 2011 135 144105
     doi.org/10.1063/1.3646921
  2. Izsak,R.; Hansen,A.; Neese,F.
     The resolution of identity and chain of spheres approximations for the LPNO-CCSD singles Fock term
     Molec. Phys., 2012 110 2413-2417
     doi.org/10.1080/00268976.2012.687466
  3. Neese,F.
     The ORCA program system
     WIRES Comput. Molec. Sci., 2012 2(1)73-78
     doi.org/10.1002/wcms.81
  4. Izsak,R.; Neese,F.; Klopper,W.
     Robust fitting techniques in the chain of spheres approximation to the Fock exchange: The role of the complementary space
     J. Chem. Phys., 2013 139 
     doi.org/10.1063/1.4819264
  5. Neese,F.
     Software update: the ORCA program system, version 4.0
     WIRES Comput. Molec. Sci., 2018 8(1)1-6
     doi.org/10.1002/wcms.1327
  6. Neese,F.; Wennmohs,F.; Becker,U.; Riplinger,C.
     The ORCA quantum chemistry program package
     J. Chem. Phys., 2020 152 Art. No. L224108
     doi.org/10.1063/5.0004608

List of optional additional citations

  1. Neese,F.
     Approximate second-order SCF convergence for spin unrestricted wavefunctions
     Chem. Phys. Lett., 2000 325(1-3)93-98
     doi.org/10.1016/s0009-2614(00)00662-x

Timings for individual modules:

Sum of individual times          ...       59.050 sec (=   0.984 min)
Startup calculation              ...       12.926 sec (=   0.215 min)  21.9 %
SCF iterations                   ...       29.386 sec (=   0.490 min)  49.8 %
Property calculations            ...        1.198 sec (=   0.020 min)   2.0 %
SCF Gradient evaluation          ...       15.525 sec (=   0.259 min)  26.3 %
Geometry relaxation              ...        0.015 sec (=   0.000 min)   0.0 %
                             ****ORCA TERMINATED NORMALLY****
TOTAL RUN TIME: 0 days 0 hours 1 minutes 8 seconds 436 msec
