[Molden Format]
[Title]
 Molden file created by orca_2mkl for BaseName=input

[Atoms] AU
O    1   8          0.0057842825         2.1081280889        -0.0654912398 
O    2   8          0.0053458846        -2.1082337626         0.0655465071 
O    3   8          3.7231368475        -0.0004322702        -0.0004615838 
C    4   6         -2.5872379979         1.4071406203         0.3314105859 
C    5   6         -2.5877976953        -1.4066162005        -0.3303605431 
C    6   6          1.4778823917        -0.0001965303        -0.0002423083 
H    7   1         -3.7753821839         2.5518551994        -0.8975528349 
H    8   1         -3.0719591476         1.7574478670         2.3080989168 
H    9   1         -3.7755538848        -2.5511251810         0.8991595977 
H   10   1         -3.0731589928        -1.7568339952        -2.3068945631 
[GTO]
  1 0
s   6 1.0 
     8588.5000000000         1.2050128859
     1297.2300000000         2.2162047744
      299.2960000000         3.6274524983
       87.3771000000         4.8884523076
       25.6789000000         4.8357205177
        3.7400400000         0.5382294948
s   3 1.0 
       42.1175000000         1.3419577961
        9.6283700000         3.5871143115
        2.8533200000        -0.0051234679
p   3 1.0 
       42.1175000000         5.5840175343
        9.6283700000         5.7333656931
        2.8533200000         4.3329547351
s   1 1.0 
        0.9056610000         0.6616591794
p   1 1.0 
        0.9056610000         1.2593521004
s   1 1.0 
        0.2556110000         0.2562092156
p   1 1.0 
        0.2556110000         0.2590684413
s   1 1.0 
        0.0845000000         0.1116998588
p   1 1.0 
        0.0845000000         0.0649398041
d   1 1.0 
        1.2920000000         4.4635405283

  2 0
s   6 1.0 
     8588.5000000000         1.2050128859
     1297.2300000000         2.2162047744
      299.2960000000         3.6274524983
       87.3771000000         4.8884523076
       25.6789000000         4.8357205177
        3.7400400000         0.5382294948
s   3 1.0 
       42.1175000000         1.3419577961
        9.6283700000         3.5871143115
        2.8533200000        -0.0051234679
p   3 1.0 
       42.1175000000         5.5840175343
        9.6283700000         5.7333656931
        2.8533200000         4.3329547351
s   1 1.0 
        0.9056610000         0.6616591794
p   1 1.0 
        0.9056610000         1.2593521004
s   1 1.0 
        0.2556110000         0.2562092156
p   1 1.0 
        0.2556110000         0.2590684413
s   1 1.0 
        0.0845000000         0.1116998588
p   1 1.0 
        0.0845000000         0.0649398041
d   1 1.0 
        1.2920000000         4.4635405283

  3 0
s   6 1.0 
     8588.5000000000         1.2050128859
     1297.2300000000         2.2162047744
      299.2960000000         3.6274524983
       87.3771000000         4.8884523076
       25.6789000000         4.8357205177
        3.7400400000         0.5382294948
s   3 1.0 
       42.1175000000         1.3419577961
        9.6283700000         3.5871143115
        2.8533200000        -0.0051234679
p   3 1.0 
       42.1175000000         5.5840175343
        9.6283700000         5.7333656931
        2.8533200000         4.3329547351
s   1 1.0 
        0.9056610000         0.6616591794
p   1 1.0 
        0.9056610000         1.2593521004
s   1 1.0 
        0.2556110000         0.2562092156
p   1 1.0 
        0.2556110000         0.2590684413
s   1 1.0 
        0.0845000000         0.1116998588
p   1 1.0 
        0.0845000000         0.0649398041
d   1 1.0 
        1.2920000000         4.4635405283

  4 0
s   6 1.0 
     4563.2400000000         0.7782017567
      682.0240000000         1.4486948054
      154.9730000000         2.3830893322
       44.4553000000         3.2000890123
       13.0290000000         3.0130044376
        1.8277300000         0.2475986326
s   3 1.0 
       20.9642000000         0.8006285193
        4.8033100000         2.1274198914
        1.4593300000        -0.0028679106
p   3 1.0 
       20.9642000000         2.5735922152
        4.8033100000         2.4082482228
        1.4593300000         1.8652813335
s   1 1.0 
        0.4834560000         0.4132166458
p   1 1.0 
        0.4834560000         0.5746273343
s   1 1.0 
        0.1455850000         0.1679761277
p   1 1.0 
        0.1455850000         0.1281846070
s   1 1.0 
        0.0438000000         0.0682363322
p   1 1.0 
        0.0438000000         0.0285616127
d   1 1.0 
        0.6260000000         1.2559581449

  5 0
s   6 1.0 
     4563.2400000000         0.7782017567
      682.0240000000         1.4486948054
      154.9730000000         2.3830893322
       44.4553000000         3.2000890123
       13.0290000000         3.0130044376
        1.8277300000         0.2475986326
s   3 1.0 
       20.9642000000         0.8006285193
        4.8033100000         2.1274198914
        1.4593300000        -0.0028679106
p   3 1.0 
       20.9642000000         2.5735922152
        4.8033100000         2.4082482228
        1.4593300000         1.8652813335
s   1 1.0 
        0.4834560000         0.4132166458
p   1 1.0 
        0.4834560000         0.5746273343
s   1 1.0 
        0.1455850000         0.1679761277
p   1 1.0 
        0.1455850000         0.1281846070
s   1 1.0 
        0.0438000000         0.0682363322
p   1 1.0 
        0.0438000000         0.0285616127
d   1 1.0 
        0.6260000000         1.2559581449

  6 0
s   6 1.0 
     4563.2400000000         0.7782017567
      682.0240000000         1.4486948054
      154.9730000000         2.3830893322
       44.4553000000         3.2000890123
       13.0290000000         3.0130044376
        1.8277300000         0.2475986326
s   3 1.0 
       20.9642000000         0.8006285193
        4.8033100000         2.1274198914
        1.4593300000        -0.0028679106
p   3 1.0 
       20.9642000000         2.5735922152
        4.8033100000         2.4082482228
        1.4593300000         1.8652813335
s   1 1.0 
        0.4834560000         0.4132166458
p   1 1.0 
        0.4834560000         0.5746273343
s   1 1.0 
        0.1455850000         0.1679761277
p   1 1.0 
        0.1455850000         0.1281846070
s   1 1.0 
        0.0438000000         0.0682363322
p   1 1.0 
        0.0438000000         0.0285616127
d   1 1.0 
        0.6260000000         1.2559581449

  7 0
s   3 1.0 
       33.8650000000         0.2550693200
        5.0947900000         0.4601086622
        1.1587900000         0.6783214465
s   1 1.0 
        0.3258400000         0.3073713539
s   1 1.0 
        0.1027410000         0.1293355558
s   1 1.0 
        0.0360000000         0.0589029394
p   1 1.0 
        0.7500000000         0.9948707607

  8 0
s   3 1.0 
       33.8650000000         0.2550693200
        5.0947900000         0.4601086622
        1.1587900000         0.6783214465
s   1 1.0 
        0.3258400000         0.3073713539
s   1 1.0 
        0.1027410000         0.1293355558
s   1 1.0 
        0.0360000000         0.0589029394
p   1 1.0 
        0.7500000000         0.9948707607

  9 0
s   3 1.0 
       33.8650000000         0.2550693200
        5.0947900000         0.4601086622
        1.1587900000         0.6783214465
s   1 1.0 
        0.3258400000         0.3073713539
s   1 1.0 
        0.1027410000         0.1293355558
s   1 1.0 
        0.0360000000         0.0589029394
p   1 1.0 
        0.7500000000         0.9948707607

 10 0
s   3 1.0 
       33.8650000000         0.2550693200
        5.0947900000         0.4601086622
        1.1587900000         0.6783214465
s   1 1.0 
        0.3258400000         0.3073713539
s   1 1.0 
        0.1027410000         0.1293355558
s   1 1.0 
        0.0360000000         0.0589029394
p   1 1.0 
        0.7500000000         0.9948707607

[5D]
[7F]
[9G]
[MO]
 Sym=     1a
 Ene= -1.91893044470243E+01
 Spin= Alpha
 Occup= 2.000000
  1      -0.547644218702
  2      -0.466566528492
  3       0.000462001669
  4       0.001239492171
  5      -0.000164938924
  6      -0.013843638515
  7      -0.000112527618
  8       0.000078670931
  9       0.000014206366
 10       0.012173429523
 11      -0.000678078215
 12      -0.001988301466
 13       0.000162997886
 14      -0.003569577453
 15       0.000666788459
 16      -0.000202339869
 17      -0.000147626862
 18      -0.000044440895
 19      -0.000015501464
 20      -0.000015367124
 21       0.000027551020
 22       0.000064378027
 23       0.063666643063
 24       0.054216190960
 25      -0.000067410164
 26       0.000094605555
 27      -0.000004808557
 28       0.001706900872
 29       0.000093679208
 30       0.000200045918
 31      -0.000048298197
 32      -0.001113337349
 33      -0.000254788103
 34       0.000223461052
 35       0.000093326195
 36       0.002302259956
 37      -0.001659890229
 38       0.000316275050
 39      -0.000091843437
 40      -0.000042360265
 41       0.000002538909
 42       0.000004159763
 43      -0.000082581162
 44       0.000022779993
 45       0.000061244076
 46       0.000019305461
 47       0.000041313346
 48      -0.000007490643
 49      -0.000010611213
 50       0.000245120592
 51      -0.000221049595
 52       0.000015056797
 53       0.000038426572
 54      -0.000800959648
 55       0.000193712115
 56       0.000591793069
 57      -0.000096552771
 58      -0.000996357626
 59       0.000169261986
 60       0.000289442834
 61       0.000004458632
 62      -0.000018433620
 63      -0.000002676560
 64       0.000001640358
 65       0.000061366658
 66      -0.000131627241
 67      -0.000018756036
 68       0.000075146288
 69      -0.000099859899
 70      -0.000030887864
 71       0.000029849766
 72      -0.000046615320
 73      -0.000276147039
 74      -0.000247247380
 75      -0.000037450592
 76      -0.005923034380
 77      -0.001252634787
 78       0.001006894096
 79       0.001090378927
 80       0.014735321937
 81       0.001504988720
 82      -0.002226347769
 83      -0.000689748675
 84      -0.000144176093
 85      -0.000050588632
 86       0.000000060232
 87       0.000003976871
 88       0.000166197273
 89       0.000004210332
 90      -0.000018069884
 91       0.000053892108
 92      -0.000020809048
 93       0.000018950424
 94      -0.000084497083
 95      -0.000106964842
 96       0.000125526948
 97      -0.000083589371
 98       0.002453990007
 99       0.000390966759
100       0.001997666679
101      -0.000149571808
102      -0.013686477074
103      -0.001623096952
104      -0.002821413288
105      -0.001018575350
106       0.000149214853
107       0.000035814170
108       0.000027417427
109      -0.000135133078
110       0.000042399299
111      -0.000007353249
112       0.000028781962
113       0.000084487717
114      -0.000222967917
115       0.000022162500
116      -0.000211088114
117       0.000050110638
118       0.000019460440
119      -0.000068005229
120      -0.002502127655
121       0.003092340069
122      -0.002596572126
123       0.000308469226
124       0.002052650729
125      -0.000504139139
126      -0.000890584199
127      -0.000195909813
128       0.000116009105
129      -0.000028113594
130      -0.000003430440
131      -0.000234917744
132      -0.000312463988
133      -0.000100816205
134       0.001410488605
135      -0.000565186607
136      -0.000762299402
137       0.000277369503
138      -0.000160316109
139       0.000077550505
140      -0.000026052219
141       0.000986233820
142      -0.000903420468
143      -0.000721769628
144       0.000152863767
145      -0.000050041474
146      -0.000217844041
147       0.000027458128
148      -0.000162791816
149       0.000461870644
150       0.000619097823
151      -0.000071689754
152      -0.000075756572
153      -0.000053122920
154      -0.000003966249
155      -0.000657371902
156       0.000468838050
157      -0.000312891893
158      -0.000083195840
159      -0.000051799992
160      -0.000091978205
 Sym=     1a
 Ene= -1.91892281327772E+01
 Spin= Alpha
 Occup= 2.000000
  1      -0.063670922518
  2      -0.054269966553
  3       0.000039614946
  4       0.000194972068
  5      -0.000033930441
  6      -0.001509328034
  7       0.000069675368
  8      -0.000187023629
  9       0.000052956919
 10       0.001725542375
 11      -0.000421732803
 12      -0.000698164956
 13      -0.000057388254
 14       0.001524362376
 15      -0.001548602219
 16      -0.000372274030
 17       0.000060365711
 18      -0.000054001409
 19      -0.000006270937
 20       0.000000664392
 21      -0.000078349695
 22      -0.000008187628
 23      -0.547644720824
 24      -0.466572773558
 25       0.000458468256
 26      -0.001251268816
 27       0.000168190891
 28      -0.013820620076
 29      -0.000093598026
 30      -0.000033582437
 31      -0.000025982669
 32       0.012244437403
 33      -0.000756281756
 34       0.002095632708
 35      -0.000145167775
 36      -0.003125168388
 37       0.000294137650
 38       0.000282215640
 39       0.000129591563
 40      -0.000055704679
 41       0.000016506834
 42      -0.000014793301
 43       0.000008868276
 44      -0.000060792673
 45       0.000077432360
 46       0.000024455762
 47       0.000052171865
 48       0.000005915223
 49       0.000008403761
 50       0.000309549922
 51      -0.000279169445
 52      -0.000011869354
 53      -0.000030417984
 54      -0.001011437413
 55       0.000244403200
 56      -0.000468576024
 57       0.000076566647
 58      -0.001258024599
 59       0.000213615900
 60      -0.000229121396
 61      -0.000003597721
 62      -0.000023285939
 63       0.000002092503
 64       0.000002052803
 65       0.000077565667
 66       0.000104177163
 67      -0.000000095599
 68      -0.000000846941
 69       0.000031835564
 70       0.000014073492
 71      -0.000012458252
 72      -0.000097755420
 73      -0.000175021801
 74      -0.000187176148
 75       0.000077138990
 76       0.001124726005
 77       0.000105670185
 78      -0.001815227132
 79       0.000410391498
 80      -0.010589132620
 81      -0.001311726720
 82       0.002374411973
 83       0.000884140386
 84       0.000119363993
 85      -0.000048567437
 86       0.000028223791
 87      -0.000137934701
 88      -0.000004291706
 89      -0.000018273475
 90       0.000072947162
 91      -0.000089800491
 92       0.000026838072
 93      -0.000026141707
 94      -0.000067609265
 95      -0.000309191661
 96       0.000283682787
 97       0.000018794706
 98      -0.005506544866
 99      -0.001195507233
100      -0.000563398371
101      -0.001154837964
102       0.011912489231
103       0.001164769254
104       0.001621790484
105       0.000468369984
106      -0.000112880297
107       0.000060275750
108       0.000006612774
109      -0.000027948731
110      -0.000160618993
111      -0.000009289294
112       0.000036369363
113       0.000106739023
114       0.000176494148
115      -0.000017568987
116      -0.000266625671
117       0.000063403240
118      -0.000015361435
119       0.000053775873
120      -0.003160864397
121       0.003906048943
122       0.002055081004
123      -0.000245299410
124       0.002593404123
125      -0.000636814419
126       0.000705226470
127       0.000155377365
128       0.000146545080
129       0.000022382175
130      -0.000004413841
131      -0.000296559646
132       0.000247425916
133       0.000004470629
134       0.000165185867
135       0.000341148794
136       0.000456321896
137      -0.000008215812
138       0.000040047550
139       0.000072887121
140      -0.000010233363
141      -0.000442870792
142       0.000268868914
143      -0.000491230498
144      -0.000049407321
145       0.000041436668
146       0.000043193786
147      -0.000097101287
148       0.001410539508
149      -0.000471694756
150      -0.000637452644
151       0.000267982511
152       0.000146770740
153      -0.000092261252
154      -0.000027701370
155       0.000858137655
156      -0.000817393684
157      -0.000815003534
158       0.000137483151
159       0.000039183356
160       0.000201976779
 Sym=     1a
 Ene= -1.91178570445126E+01
 Spin= Alpha
 Occup= 2.000000
  1       0.000072768513
  2       0.000096564180
  3       0.000050684473
  4      -0.000051821233
  5      -0.000009058161
  6      -0.000231358483
  7      -0.000137011029
  8       0.000226640478
  9       0.000040791429
 10       0.001152052317
 11      -0.000844497443
 12      -0.000743334282
 13      -0.000253916311
 14       0.001037901487
 15      -0.000594905585
 16       0.000240918115
 17      -0.000146620920
 18       0.000025217381
 19       0.000012935395
 20       0.000009944104
 21      -0.000088677615
 22       0.000180354995
 23       0.000072834164
 24       0.000096613892
 25       0.000050685683
 26       0.000051804413
 27       0.000009032875
 28      -0.000231285354
 29      -0.000137068393
 30      -0.000226601912
 31      -0.000040725153
 32       0.001151640506
 33      -0.000843936809
 34       0.000743423169
 35       0.000254039423
 36       0.001037231205
 37      -0.000594572230
 38      -0.000240778229
 39       0.000146712765
 40       0.000025237223
 41      -0.000012898796
 42       0.000009977275
 43      -0.000088769929
 44      -0.000180307857
 45       0.551302508649
 46       0.469679104190
 47      -0.001265290198
 48       0.000000145454
 49       0.000000012859
 50       0.014236907870
 51      -0.000958817235
 52       0.000000089056
 53       0.000000129182
 54      -0.012672232037
 55       0.002701586260
 56      -0.000000284645
 57      -0.000000229346
 58      -0.001437120086
 59       0.001397694571
 60      -0.000000106571
 61      -0.000000077309
 62      -0.000178458881
 63      -0.000000056788
 64       0.000001095340
 65       0.000312214155
 66      -0.000000062846
 67      -0.000006775302
 68       0.000035980501
 69       0.000024891348
 70      -0.000003741235
 71      -0.000026910448
 72      -0.000389382293
 73      -0.000242661562
 74       0.000083269942
 75       0.000180726520
 76       0.000305534689
 77       0.000957743078
 78      -0.001237184592
 79       0.001752297510
 80      -0.001462997288
 81      -0.000480872757
 82      -0.000013883546
 83       0.000277243803
 84       0.000066202974
 85      -0.000035455055
 86       0.000023720825
 87       0.000000467545
 88      -0.000128444429
 89      -0.000006775964
 90       0.000035987085
 91       0.000024908878
 92       0.000003737815
 93       0.000026889792
 94      -0.000389558186
 95      -0.000242768679
 96      -0.000083251551
 97      -0.000180645458
 98       0.000307578131
 99       0.000957894430
100       0.001237493300
101      -0.001752740045
102      -0.001460033491
103      -0.000480897787
104       0.000014535783
105      -0.000276899064
106       0.000066241409
107       0.000035518340
108       0.000023689564
109       0.000000552487
110       0.000128471743
111      -0.000035410287
112       0.000140462696
113       0.000438404560
114      -0.000000048435
115      -0.000000048129
116       0.000411500011
117      -0.001478952368
118       0.000000161905
119       0.000000180306
120       0.005516567000
121       0.009505408377
122      -0.000000936579
123      -0.000001064778
124       0.001458642282
125      -0.001421019032
126       0.000000171260
127       0.000000202228
128       0.000355528878
129       0.000000196590
130       0.000036305477
131      -0.001037011303
132       0.000000233700
133      -0.000043293208
134       0.000523692861
135       0.000809733115
136      -0.000130736729
137       0.000015761853
138       0.000019696491
139       0.000009041544
140       0.000087514885
141      -0.000959827360
142      -0.000187356597
143       0.000137434545
144      -0.000124410259
145       0.000118093696
146       0.000117107821
147      -0.000043291559
148       0.000523615833
149       0.000809914068
150      -0.000130936889
151       0.000015718436
152      -0.000019690003
153      -0.000009054352
154       0.000087564015
155      -0.000960321060
156      -0.000187501790
157       0.000137258050
158      -0.000124513405
159      -0.000118117501
160      -0.000117154051
 Sym=     1a
 Ene= -1.03527895107882E+01
 Spin= Alpha
 Occup= 2.000000
  1       0.000031776025
  2       0.000073816177
  3      -0.000080990315
  4       0.000214556212
  5      -0.000001821063
  6      -0.000701194033
  7      -0.000017897927
  8      -0.000276152608
  9      -0.000029448261
 10       0.001051408044
 11       0.000715401962
 12      -0.000561520237
 13       0.000368476228
 14      -0.007408359957
 15      -0.000569321557
 16       0.003260837785
 17      -0.000213174606
 18      -0.000331661877
 19      -0.000035576086
 20      -0.000045425852
 21      -0.000205667705
 22      -0.000336345300
 23       0.000031772400
 24       0.000073815460
 25      -0.000081025402
 26      -0.000214504698
 27       0.000001846899
 28      -0.000701163529
 29      -0.000017818668
 30       0.000276072945
 31       0.000029433668
 32       0.001051122726
 33       0.000715202756
 34       0.000561222105
 35      -0.000368696742
 36      -0.007407454135
 37      -0.000570126047
 38      -0.003260549935
 39       0.000213616812
 40      -0.000331643729
 41       0.000035431619
 42      -0.000045566530
 43      -0.000205490862
 44       0.000336388861
 45       0.000112901701
 46       0.000064773335
 47       0.000543485322
 48      -0.000000058153
 49      -0.000000055583
 50      -0.000380980894
 51      -0.001944865952
 52       0.000000194060
 53       0.000000191954
 54       0.007603873780
 55      -0.003858659142
 56       0.000000417545
 57       0.000000340198
 58      -0.001279703001
 59       0.002852447437
 60      -0.000000271224
 61      -0.000000468813
 62      -0.000612039663
 63      -0.000000194145
 64       0.000000759622
 65       0.000984585672
 66      -0.000000199731
 67       0.000004142908
 68       0.000019242439
 69       0.000109599325
 70      -0.000068292031
 71       0.000013565003
 72       0.000099892322
 73      -0.000412039644
 74       0.000215569890
 75      -0.000147690586
 76       0.000487927493
 77      -0.000046603828
 78       0.000559659606
 79      -0.001996756941
 80      -0.006096368508
 81      -0.001242499702
 82      -0.000941141577
 83       0.002042454477
 84       0.000034477246
 85       0.000104185096
 86      -0.000077086462
 87      -0.000191849390
 88       0.000121202927
 89       0.000004150529
 90       0.000019242525
 91       0.000109588867
 92       0.000068271875
 93      -0.000013598473
 94       0.000099979049
 95      -0.000411899486
 96      -0.000215448920
 97       0.000147806275
 98       0.000487231503
 99      -0.000046110469
100      -0.000559729698
101       0.001996768204
102      -0.006104230515
103      -0.001243795791
104       0.000939404675
105      -0.002042301095
106       0.000034544052
107      -0.000104040756
108      -0.000077020583
109      -0.000191935787
110      -0.000121138110
111      -0.563061907988
112      -0.463304915666
113       0.000815132543
114      -0.000000131529
115       0.000000076623
116      -0.018787730056
117      -0.002515529340
118       0.000000147485
119      -0.000000002293
120       0.011464411749
121      -0.006179119164
122       0.000000518132
123       0.000000981117
124       0.013995852887
125      -0.006502883068
126       0.000000570801
127       0.000001016104
128       0.001571576582
129       0.000000458075
130      -0.000028203329
131      -0.001749100124
132       0.000000442875
133       0.000053746380
134      -0.000914375268
135       0.000866689145
136       0.001953742960
137      -0.000121093104
138       0.000033343538
139      -0.000062060496
140      -0.000108909120
141       0.000960651714
142       0.001246810158
143      -0.001791344973
144       0.000180118906
145      -0.000131156851
146      -0.000092848524
147       0.000053750581
148      -0.000914316864
149       0.000866829062
150       0.001953562582
151      -0.000121039696
152      -0.000033254774
153       0.000062090707
154      -0.000108897453
155       0.000960665569
156       0.001247385356
157      -0.001791288404
158       0.000180172283
159       0.000131128857
160       0.000092791797
 Sym=     1a
 Ene= -1.02632628518017E+01
 Spin= Alpha
 Occup= 2.000000
  1       0.000015736973
  2       0.000051613275
  3       0.000074431655
  4       0.000051426245
  5      -0.000022730755
  6      -0.000448629102
  7       0.000130791545
  8      -0.000118228311
  9       0.000023672144
 10       0.000932035189
 11      -0.000644830975
 12       0.000140100969
 13      -0.000064199817
 14      -0.005964892591
 15       0.002895026624
 16       0.000490633068
 17      -0.000526605295
 18      -0.000086135804
 19      -0.000050069458
 20      -0.000033228972
 21       0.000124535877
 22       0.000063959719
 23       0.000015888946
 24       0.000052156190
 25       0.000074885744
 26      -0.000051764359
 27       0.000022791717
 28      -0.000452482462
 29       0.000132536131
 30       0.000118269002
 31      -0.000023523297
 32       0.000929845686
 33      -0.000643309001
 34      -0.000140874632
 35       0.000064225481
 36      -0.006044109881
 37       0.002921910253
 38      -0.000506039223
 39       0.000528212674
 40      -0.000087048858
 41       0.000050105809
 42      -0.000033216475
 43       0.000124783289
 44      -0.000064445308
 45      -0.000004386087
 46      -0.000040369948
 47       0.000003932538
 48       0.000000054509
 49      -0.000000074902
 50       0.000471164249
 51      -0.000047614024
 52      -0.000000214529
 53       0.000000278012
 54      -0.002966545388
 55       0.001261766642
 56       0.000001134455
 57      -0.000000782737
 58      -0.003509247687
 59       0.001441087475
 60      -0.000001738998
 61      -0.000000851414
 62       0.000025964403
 63      -0.000000020542
 64       0.000005003416
 65      -0.000043903252
 66      -0.000000118207
 67      -0.396298026019
 68      -0.326070450636
 69      -0.000676990291
 70       0.000344209668
 71       0.000236297265
 72      -0.013703058780
 73       0.001174216138
 74      -0.001564422397
 75      -0.000564366274
 76       0.008376603749
 77       0.002163748132
 78      -0.000107513236
 79       0.000896369523
 80       0.006849271422
 81       0.000518400136
 82       0.000445866818
 83       0.001296347863
 84      -0.000971437225
 85      -0.000279202072
 86       0.000465082311
 87      -0.000259423609
 88       0.000717914451
 89      -0.399916083371
 90      -0.329047609238
 91      -0.000683519275
 92      -0.000341073881
 93      -0.000236730099
 94      -0.013824592813
 95       0.001184932199
 96       0.001563957742
 97       0.000566100537
 98       0.008510802576
 99       0.002181883084
100       0.000125778047
101      -0.000888267395
102       0.007173764059
103       0.000530315451
104      -0.000397391000
105      -0.001282624294
106      -0.000975664080
107       0.000280340484
108       0.000464487042
109      -0.000253994807
110      -0.000721983147
111      -0.000004286664
112      -0.000000197430
113      -0.000158277296
114      -0.000000153220
115       0.000000151709
116       0.000231524506
117       0.000558350549
118       0.000000576036
119      -0.000000612210
120       0.003994385466
121       0.003688272064
122      -0.000002768009
123       0.000002186753
124      -0.000751028474
125      -0.000538106822
126       0.000011249480
127       0.000001036879
128       0.000123378161
129      -0.000000270150
130       0.000007397160
131      -0.000146665032
132      -0.000000650157
133      -0.000000010162
134       0.003225299273
135      -0.002456428788
136      -0.000261706040
137       0.001031340650
138      -0.000987753034
139       0.001230322098
140       0.000038469304
141       0.002262216502
142      -0.003727238585
143      -0.001736701511
144       0.000231402519
145      -0.000134434589
146      -0.001652147124
147      -0.000000893752
148       0.003240719374
149      -0.002489387765
150      -0.000281227629
151       0.001037096518
152       0.000993753720
153      -0.001239135196
154       0.000037386554
155       0.002278566628
156      -0.003760130112
157      -0.001751530557
158       0.000233667123
159       0.000135877627
160       0.001664254167
 Sym=     1a
 Ene= -1.02630371365926E+01
 Spin= Alpha
 Occup= 2.000000
  1      -0.000018025726
  2      -0.000060686265
  3      -0.000057781390
  4      -0.000039123198
  5       0.000009955739
  6       0.000442928626
  7      -0.000179735854
  8       0.000015919601
  9       0.000018832730
 10       0.000171354486
 11      -0.000122436860
 12      -0.000084988201
 13      -0.000020393796
 14       0.008885433655
 15      -0.002984713443
 16      -0.001669696742
 17       0.000311726292
 18       0.000105370523
 19       0.000020209438
 20       0.000001940371
 21      -0.000037413451
 22      -0.000052552627
 23       0.000017870033
 24       0.000060202007
 25       0.000057058770
 26      -0.000038657498
 27       0.000009711242
 28      -0.000438664960
 29       0.000178589009
 30       0.000014796368
 31       0.000018979721
 32      -0.000180271798
 33       0.000128514084
 34      -0.000083911742
 35      -0.000020920096
 36      -0.008830309664
 37       0.002957741214
 38      -0.001665574483
 39       0.000305603076
 40      -0.000104542553
 41       0.000019645067
 42      -0.000001616117
 43       0.000036205653
 44      -0.000051952139
 45       0.000000020185
 46       0.000000182113
 47      -0.000000014936
 48       0.000011652831
 49      -0.000018178251
 50      -0.000002113048
 51       0.000000197135
 52      -0.000046303526
 53       0.000068996491
 54       0.000013286368
 55      -0.000005594474
 56       0.000281890053
 57      -0.000158585441
 58       0.000015557893
 59      -0.000006488075
 60      -0.000359306861
 61      -0.000159657192
 62      -0.000000115603
 63      -0.000008413021
 64      -0.000000022533
 65       0.000000189157
 66      -0.000029031517
 67       0.399930262337
 68       0.329084735092
 69       0.000716570464
 70       0.000324802945
 71      -0.000076399253