
                                 *****************
                                 * O   R   C   A *
                                 *****************

                                            #,                                       
                                            ###                                      
                                            ####                                     
                                            #####                                    
                                            ######                                   
                                           ########,                                 
                                     ,,################,,,,,                         
                               ,,#################################,,                 
                          ,,##########################################,,             
                       ,#########################################, ''#####,          
                    ,#############################################,,   '####,        
                  ,##################################################,,,,####,       
                ,###########''''           ''''###############################       
              ,#####''   ,,,,##########,,,,          '''####'''          '####       
            ,##' ,,,,###########################,,,                        '##       
           ' ,,###''''                  '''############,,,                           
         ,,##''                                '''############,,,,        ,,,,,,###''
      ,#''                                            '''#######################'''  
     '                                                          ''''####''''         
             ,#######,   #######,   ,#######,      ##                                
            ,#'     '#,  ##    ##  ,#'     '#,    #''#        ,####,   ,####,        
            ##       ##  ##   ,#'  ##            #'  '#       #'       #'  '#        
            ##       ##  #######   ##           ,######,      #####,   #    #        
            '#,     ,#'  ##    ##  '#,     ,#' ,#      #,     #,   #   #,  ,#        
             '#######'   ##     ##  '#######'  #'      '#     '####' # '####'        



                #########################################################
                #                        -***-                          #
                #          Department of theory and spectroscopy        #
                #                                                       #
                #                      Frank Neese                      #
                #                                                       #
                #     Directorship, Architecture, Infrastructure        #
                #                    SHARK, DRIVERS                     #
                #        Core code/Algorithms in most modules           #
                #                                                       #
                #        Max Planck Institute fuer Kohlenforschung      #
                #                Kaiser Wilhelm Platz 1                 #
                #                 D-45470 Muelheim/Ruhr                 #
                #                      Germany                          #
                #                                                       #
                #                  All rights reserved                  #
                #                        -***-                          #
                #########################################################


                         Program Version 6.0.1  -  RELEASE   -


 With contributions from (in alphabetic order):
[Max-Planck-Institut fuer Kohlenforschung]                               
  Daniel Aravena         : Magnetic Suceptibility                        
  Michael Atanasov       : Ab Initio Ligand Field Theory (pilot matlab implementation)
  Alexander A. Auer      : GIAO ZORA, VPT2 properties, NMR spectrum      
  Ute Becker             : All parallelization in ORCA, NUMFREQ, NUMCALC 
  Giovanni Bistoni       : ED, misc. LED, open-shell LED, HFLD           
  Martin Brehm           : Molecular dynamics                            
  Dmytro Bykov           : pre 5.0 version of the SCF Hessian            
  Marcos Casanova-Páez   : Triplet and SCS-CIS(D). UHF-(DLPNO)-IP/EA/STEOM-CCSD. UHF-CVS-IP/STEOM-CCSD   
  Vijay G. Chilkuri      : MRCI spin determinant printing, contributions to CSF-ICE 
  Pauline Colinet        : FMM embedding                                 
  Dipayan Datta          : RHF DLPNO-CCSD density                        
  Achintya Kumar Dutta   : EOM-CC, STEOM-CC                              
  Nicolas Foglia         : Exact transition moments, OPA infrastructure, MCD improvements    
  Dmitry Ganyushin       : Spin-Orbit,Spin-Spin,Magnetic field MRCI      
  Miquel Garcia-Rates    : C-PCM and meta-GGA Hessian, CCSD/C-PCM, Gaussian charge scheme 
  Tiago L. C. Gouveia    : GS-ROHF, GS-ROCIS                             
  Yang Guo               : DLPNO-NEVPT2, F12-NEVPT2, CIM, IAO-localization        
  Andreas Hansen         : Spin unrestricted coupled pair/coupled cluster methods 
  Ingolf Harden          : AUTO-CI MPn and infrastructure                
  Benjamin Helmich-Paris : MC-RPA, TRAH-(SCF,CASSCF), AVAS, COSX integrals, SCF dyn. polar. 
  Lee Huntington         : MR-EOM, pCC                                   
  Robert Izsak           : Overlap fitted RIJCOSX, COSX-SCS-MP3, EOM     
  Riya Kayal             : Wick's Theorem for AUTO-CI, AUTO-CI UHF-CCSDT 
  Emily Kempfer          : AUTO-CI, RHF CISDT and CCSDT                  
  Christian Kollmar      : KDIIS, OOCD, Brueckner-CCSD(T), CCSD density, CASPT2, CASPT2-K, improved NEVPT2 
  Axel Koslowski         : Symmetry handling                             
  Simone Kossmann        : meta-GGA functionals, TD-DFT gradient, OOMP2, (MP2 Hessian; deprecated post 5.0) 
  Lucas Lang             : DCDCAS                                        
  Marvin Lechner         : AUTO-CI (C++ implementation), FIC-MRCC        
  Spencer Leger          : CASSCF response                               
  Dagmar Lenk            : GEPOL surface, SMD, ORCA-2-JSON               
  Dimitrios Liakos       : Extrapolation schemes; Compound Job, initial MDCI parallelization 
  Dimitrios Manganas     : Further ROCIS development; embedding schemes. LFT, Crystal Embedding 
  Dimitrios Pantazis     : SARC Basis sets                               
  Anastasios Papadopoulos: AUTO-CI, single reference methods and gradients 
  Taras Petrenko         : pre 6.0 DFT Hessian and TD-DFT gradient, (ASA, deprecated), ECA, 1-Electron XAS/XES, NRVS 
  Peter Pinski           : DLPNO-MP2, DLPNO-MP2 Gradient                 
  Christoph Reimann      : Effective Core Potentials                     
  Marius Retegan         : Local ZFS, SOC                                
  Christoph Riplinger    : Optimizer, TS searches, QM/MM, DLPNO-CCSD(T), (RO)-DLPNO pert. Triples 
  Michael Roemelt        : Original ROCIS implementation                 
  Masaaki Saitow         : Open-shell DLPNO-CCSD energy and density      
  Barbara Sandhoefer     : DKH picture change effects                    
  Kantharuban Sivalingam : CASSCF convergence/infrastructure, NEVPT2 and variants, FIC-MRCI 
  Bernardo de Souza      : ESD, SOC TD-DFT                               
  Georgi L. Stoychev     : AutoAux, RI-MP2 NMR, DLPNO-MP2 response, X2C  
  Van Anh Tran           : RI-MP2 g-tensors                              
  Willem Van den Heuvel  : Paramagnetic NMR                              
  Zikuan Wang            : NOTCH, Electric field optimization            
  Frank Wennmohs         : Technical directorship and infrastructure     
  Hang Xu                : AUTO-CI-Response properties                   
                                                                         
[FACCTs GmbH]                                                            
  Markus Bursch, Miquel Garcia-Rates, Christoph Riplinger, Bernardo de Souza, Georgi L. Stoychev 
                                                                 
  APM, Basis sets (HGBS, AHGBS, def-TZVP (Ac-Lr), def2-XVPD (La-Lu)), CI-OPT, improved COSX, DLPNO-Multilevel,           
  DOCKER, DRACO, updates on ESD, GOAT, IRC, LR-CPCM, MBIS, meta-GGA TD-DFT gradient, ML-optimized integration grids, 
  MM, NACMEs, nearIR, NEB, NEB-TS, NL-DFT gradient (VV10), 2- and 3-layer-ONIOM, interface openCOSMO-RS, QMMM,   
  Crystal-QMMM, SF, symmetry and pop. for TD-DFT, r2SCAN hybrids, SOLVATOR                                   
                                                                         
[Other institutions]                                                     
  V. Asgeirsson          : NEB                                           
  Christoph Bannwarth    : sTDA-DFT, sTD-DFT, PBEh-3c, B97-3c, D3        
  Sebastian Ehlert       : rSCAN, r2SCAN, r2SCAN-3c, D4, dhf basis sets  
  Marvin Friede          : D4 for Fr, Ra, Ac-Lr                          
  Lars Goerigk           : TD-DFT with DH, B97 family of functionals     
  Stefan Grimme          : VdW corrections, initial TS optimization, DFT functionals, gCP, sTDA/sTD-DF 
  Waldemar Hujo          : DFT-NL                                        
  H. Jonsson             : NEB                                           
  Holger Kruse           : gCP                                           
  Marcel Mueller         : wB97X-3c, vDZP basis set                      
  Hagen Neugebauer       : wr2SCAN                                       
  Tobias Risthaus        : range-separated hybrid DFT                    
  Lukas Wittmann         : regularized MP2, r2SCAN double-hybrids, wr2SCAN        
                                                                         
We gratefully acknowledge several colleagues who have allowed us to      
interface, adapt or use parts of their codes:                            
  Ed Valeev, F. Pavosevic, A. Kumar             : LibInt (2-el integral package), F12 methods 
  Garnet Chan, S. Sharma, J. Yang, R. Olivares  : DMRG                   
  Ulf Ekstrom                                   : XCFun DFT Library      
  Mihaly Kallay                                 : mrcc  (arbitrary order and MRCC methods)
  Frank Weinhold                                : gennbo (NPA and NBO analysis)           
  Simon Mueller                                 : openCOSMO-RS                            
  Christopher J. Cramer and Donald G. Truhlar   : smd solvation model                     
  S Lehtola, MJT Oliveira, MAL Marques          : LibXC Library                           
  Liviu Ungur et al                             : ANISO software                          


 Your calculation uses the libint2 library for the computation of 2-el integrals
 For citations please refer to: http://libint.valeyev.net

 Your ORCA version has been built with support for libXC version: 6.2.2
 For citations please refer to: https://libxc.gitlab.io

 This ORCA versions uses:
   CBLAS   interface :  Fast vector & matrix operations
   LAPACKE interface :  Fast linear algebra routines
   SCALAPACK package :  Parallel linear algebra routines
   Shared memory     :  Shared parallel matrices
   BLAS/LAPACK       :  OpenBLAS 0.3.27  USE64BITINT DYNAMIC_ARCH NO_AFFINITY SkylakeX SINGLE_THREADED
        Core in use  :  SkylakeX
   Copyright (c) 2011-2014, The OpenBLAS Project


NOTE: MaxCore=5000 MB was set to SCF,MP2,MDCI,CIPSI,MRCI and CIS
      => If you want to overwrite this, your respective input block should be placed after the MaxCore statement
Your calculation utilizes the atom-pairwise dispersion correction
based on EEQ partial charges (D4)


================================================================================

----- Orbital basis set information -----
Your calculation utilizes the basis: def2-TZVP
   F. Weigend and R. Ahlrichs, Phys. Chem. Chem. Phys. 7, 3297 (2005).

----- AuxJ basis set information -----
Your calculation utilizes the auxiliary basis: def2/J
   F. Weigend, Phys. Chem. Chem. Phys. 8, 1057 (2006).

================================================================================
                                        WARNINGS
                       Please study these warnings very carefully!
================================================================================


WARNING: Geometry Optimization
  ===> : Switching off AutoStart
         For restart on a previous wavefunction, please use MOREAD

================================================================================
                                       INPUT FILE
================================================================================
NAME = input.inp
|  1> ! Opt B3LYP D4 def2-TZVP TightSCF TightOpt CPCM(water)  RIJCOSX def2/J 
|  2> 
|  3> %maxcore 5000
|  4> 
|  5> %pal
|  6> nprocs 18
|  7> end
|  8> 
|  9> * xyz 0 1
| 10> Li      -3.4103138523   2.3466869161  -2.0934737716
| 11> F       -1.9248775677   5.9209049267  -0.6134004247
| 12> O       -0.9063509410   4.1496132486  -0.1443850955
| 13> P       -2.6193829343   4.4271279130  -0.1260593046
| 14> F       -3.0628296544   5.8893005025   0.6591003841
| 15> O       -2.4372488012   4.1067414379   1.5697802896
| 16> *
| 17> 
| 18> 
| 19>                          ****END OF INPUT****
================================================================================

                       *****************************
                       * Geometry Optimization Run *
                       *****************************

Geometry optimization settings:
Update method            Update   .... BFGS
Choice of coordinates    CoordSys .... (2022) Redundant Internals
Initial Hessian          InHess   .... Almloef's Model
Max. no of cycles        MaxIter  .... 50

Convergence Tolerances:
Energy Change            TolE     ....  1.0000e-06 Eh
Max. Gradient            TolMAXG  ....  1.0000e-04 Eh/bohr
RMS Gradient             TolRMSG  ....  3.0000e-05 Eh/bohr
Max. Displacement        TolMAXD  ....  1.0000e-03 bohr
RMS Displacement         TolRMSD  ....  6.0000e-04 bohr
Strict Convergence                .... False

------------------------------------------------------------------------------
                        ORCA OPTIMIZATION COORDINATE SETUP
------------------------------------------------------------------------------

The optimization will be done in redundant internal coordinates (2022)
Making redundant internal coordinates   ...  (2022 redundants) done
Evaluating the initial hessian          ...  (Almloef) done
Evaluating the coordinates              ...  done
Calculating the B-matrix                .... done
Calculating the G-matrix                .... done
Diagonalizing the G-matrix              .... done
The first mode is                       ....   12
The number of degrees of freedom        ....   12

    -----------------------------------------------------------------
                    Redundant Internal Coordinates


    -----------------------------------------------------------------
         Definition                    Initial Value    Approx d2E/dq
    -----------------------------------------------------------------
      1. B(P   3,O   2)                  1.7355         0.528697   
      2. B(P   3,Li  0)                  2.9706         0.030655   
      3. B(P   3,F   1)                  1.7179         0.523967   
      4. B(F   4,P   3)                  1.7179         0.524045   
      5. B(F   4,F   1)                  1.7074         0.134839   
      6. B(O   5,P   3)                  1.7354         0.528773   
      7. A(P   3,F   1,F   4)           60.2007         0.334255   
      8. A(F   1,P   3,O   2)           74.7519         0.459371   
      9. A(Li  0,P   3,O   2)           98.2694         0.303934   
     10. A(Li  0,P   3,F   4)          146.1063         0.302522   
     11. A(F   1,P   3,F   4)           59.5962         0.456938   
     12. A(O   2,P   3,F   4)          113.3118         0.459383   
     13. A(Li  0,P   3,F   1)          121.9195         0.302514   
     14. A(Li  0,P   3,O   5)          123.0818         0.303941   
     15. A(F   1,P   3,O   5)          113.2855         0.459383   
     16. A(O   2,P   3,O   5)           82.9464         0.461844   
     17. A(F   4,P   3,O   5)           74.7874         0.459395   
     18. A(F   1,F   4,P   3)           60.2031         0.334264   
     19. D(O   5,P   3,F   1,F   4)    -54.2851         0.006233   
     20. D(Li  0,P   3,F   1,F   4)    140.2068         0.006233   
     21. D(O   2,P   3,F   1,F   4)   -129.4593         0.006233   
     22. D(F   1,F   4,P   3,O   5)    129.3868         0.006235   
     23. D(F   1,F   4,P   3,O   2)     54.2046         0.006235   
     24. D(F   1,F   4,P   3,Li  0)   -103.0539         0.006235   
    -----------------------------------------------------------------

Number of atoms                         .... 6
Number of degrees of freedom            .... 24


         *************************************************************
         *                GEOMETRY OPTIMIZATION CYCLE   1            *
         *************************************************************
---------------------------------
CARTESIAN COORDINATES (ANGSTROEM)
---------------------------------
  Li    -3.410314    2.346687   -2.093474
  F     -1.924878    5.920905   -0.613400
  O     -0.906351    4.149613   -0.144385
  P     -2.619383    4.427128   -0.126059
  F     -3.062830    5.889301    0.659100
  O     -2.437249    4.106741    1.569780

----------------------------
CARTESIAN COORDINATES (A.U.)
----------------------------
  NO LB      ZA    FRAG     MASS         X           Y           Z
   0 Li    3.0000    0     6.941   -6.444559    4.434596   -3.956092
   1 F     9.0000    0    18.998   -3.637491   11.188889   -1.159159
   2 O     8.0000    0    15.999   -1.712755    7.841633   -0.272848
   3 P    15.0000    0    30.974   -4.949916    8.366059   -0.238218
   4 F     9.0000    0    18.998   -5.787909   11.129165    1.245519
   5 O     8.0000    0    15.999   -4.605733    7.760617    2.966455

--------------------------------
INTERNAL COORDINATES (ANGSTROEM)
--------------------------------
 Li     0   0   0     0.000000000000     0.00000000     0.00000000
 F      1   0   0     4.143932004161     0.00000000     0.00000000
 O      2   1   0     2.096388818237    61.66024657     0.00000000
 P      2   1   3     1.717908274104    37.47846590   294.84669792
 F      2   1   3     1.707393364064    90.64848436   261.10667245
 O      4   2   1     1.735422791461   113.28548933   165.50811614

---------------------------
INTERNAL COORDINATES (A.U.)
---------------------------
 Li     0   0   0     0.000000000000     0.00000000     0.00000000
 F      1   0   0     7.830896605455     0.00000000     0.00000000
 O      2   1   0     3.961600736682    61.66024657     0.00000000
 P      2   1   3     3.246376161254    37.47846590   294.84669792
 F      2   1   3     3.226505860956    90.64848436   261.10667245
 O      4   2   1     3.279473802427   113.28548933   165.50811614

---------------------
BASIS SET INFORMATION
---------------------
There are 4 groups of distinct atoms

 Group   1 Type Li  : 11s3p contracted to 5s3p pattern {62111/111}
 Group   2 Type F   : 11s6p2d1f contracted to 5s3p2d1f pattern {62111/411/11/1}
 Group   3 Type O   : 11s6p2d1f contracted to 5s3p2d1f pattern {62111/411/11/1}
 Group   4 Type P   : 14s9p3d1f contracted to 5s5p2d1f pattern {73211/51111/21/1}

Atom   0Li   basis set group =>   1
Atom   1F    basis set group =>   2
Atom   2O    basis set group =>   3
Atom   3P    basis set group =>   4
Atom   4F    basis set group =>   2
Atom   5O    basis set group =>   3
---------------------------------
AUXILIARY/J BASIS SET INFORMATION
---------------------------------
There are 4 groups of distinct atoms

 Group   1 Type Li  : 12s5p4d2f1g contracted to 6s4p3d1f1g pattern {711111/2111/211/2/1}
 Group   2 Type F   : 12s5p4d2f1g contracted to 6s4p3d1f1g pattern {711111/2111/211/2/1}
 Group   3 Type O   : 12s5p4d2f1g contracted to 6s4p3d1f1g pattern {711111/2111/211/2/1}
 Group   4 Type P   : 14s5p5d2f1g contracted to 8s4p3d1f1g pattern {71111111/2111/311/2/1}

Atom   0Li   basis set group =>   1
Atom   1F    basis set group =>   2
Atom   2O    basis set group =>   3
Atom   3P    basis set group =>   4
Atom   4F    basis set group =>   2
Atom   5O    basis set group =>   3
--------------------------------------------------------------------------
WARNING: There was an error initializing an OpenFabrics device.

  Local host:   ga04
  Local device: mlx5_0
--------------------------------------------------------------------------


           ************************************************************
           *        Program running with 18 parallel MPI-processes    *
           *              working on a common directory               *
           ************************************************************
------------------------------------------------------------------------------
                             ORCA STARTUP CALCULATIONS
                           -- RI-GTO INTEGRALS CHOSEN --
------------------------------------------------------------------------------
------------------------------------------------------------------------------
                   ___                                                        
                  /   \      - P O W E R E D   B Y -                         
                 /     \                                                     
                 |  |  |   _    _      __       _____    __    __             
                 |  |  |  | |  | |    /  \     |  _  \  |  |  /  |          
                  \  \/   | |  | |   /    \    | | | |  |  | /  /          
                 / \  \   | |__| |  /  /\  \   | |_| |  |  |/  /          
                |  |  |   |  __  | /  /__\  \  |    /   |      \           
                |  |  |   | |  | | |   __   |  |    \   |  |\   \          
                \     /   | |  | | |  |  |  |  | |\  \  |  | \   \       
                 \___/    |_|  |_| |__|  |__|  |_| \__\ |__|  \__/        
                                                                              
                      - O R C A' S   B I G   F R I E N D -                    
                                      &                                       
                       - I N T E G R A L  F E E D E R -                       
                                                                              
 v1 FN, 2020, v2 2021, v3 2022-2024                                           
------------------------------------------------------------------------------


----------------------
SHARK INTEGRAL PACKAGE
----------------------

Number of atoms                             ...      6
Number of basis functions                   ...    175
Number of shells                            ...     65
Maximum angular momentum                    ...      3
Integral batch strategy                     ... SHARK/LIBINT Hybrid
RI-J (if used) integral strategy            ... SPLIT-RIJ (Revised 2003 algorithm where possible)
Printlevel                                  ...      1
Contraction scheme used                     ... SEGMENTED contraction
Prescreening option                         ... SCHWARTZ
   Thresh                                   ... 2.500e-11
   Tcut                                     ... 2.500e-12
   Tpresel                                  ... 2.500e-12 
Coulomb Range Separation                    ... NOT USED
Exchange Range Separation                   ... NOT USED
Multipole approximations                    ... NOT USED
Finite Nucleus Model                        ... NOT USED
CABS basis                                  ... NOT available
Auxiliary Coulomb fitting basis             ... AVAILABLE
   # of basis functions in Aux-J            ...    296
   # of shells in Aux-J                     ...     92
   Maximum angular momentum in Aux-J        ...      4
Auxiliary J/K fitting basis                 ... NOT available
Auxiliary Correlation fitting basis         ... NOT available
Auxiliary 'external' fitting basis          ... NOT available

Checking pre-screening integrals            ... done (  0.0 sec) Dimension = 65
Check shell pair data                       ... done (  0.0 sec)
Shell pair information
Shell pair cut-off parameter TPreSel        ...   2.5e-12
Total number of shell pairs                 ...      2145
Shell pairs after pre-screening             ...      1938
Total number of primitive shell pairs       ...      7521
Primitive shell pairs kept                  ...      5057
          la=0 lb=0:    377 shell pairs
          la=1 lb=0:    550 shell pairs
          la=1 lb=1:    202 shell pairs
          la=2 lb=0:    268 shell pairs
          la=2 lb=1:    193 shell pairs
          la=2 lb=2:     53 shell pairs
          la=3 lb=0:    134 shell pairs
          la=3 lb=1:     96 shell pairs
          la=3 lb=2:     50 shell pairs
          la=3 lb=3:     15 shell pairs

Calculating one electron integrals          ... done (  0.0 sec)
Calculating RI/J V-Matrix + Cholesky decomp.... done (  0.0 sec)
Calculating Nuclear repulsion               ... done (  0.0 sec) ENN=    280.106810951176 Eh

Diagonalization of the overlap matrix:
Smallest eigenvalue                        ... 2.805e-03
Time for diagonalization                   ...    0.003 sec
Threshold for overlap eigenvalues          ... 1.000e-07
Number of eigenvalues below threshold      ... 0
Time for construction of square roots      ...    0.002 sec
Total time needed                          ...    0.007 sec

-------------------
DFT GRID GENERATION
-------------------

General Integration Accuracy     IntAcc      ... 4.388
Radial Grid Type                 RadialGrid  ... OptM3 with GC (2021)
Angular Grid (max. ang.)         AngularGrid ... 4 (Lebedev-302)
Angular grid pruning method      GridPruning ... 4 (adaptive)
Weight generation scheme         WeightScheme... mBecke (2022)
Basis function cutoff            BFCut       ... 1.0000e-11
Integration weight cutoff        WCut        ... 1.0000e-14
Partially contracted basis set               ... off
Rotationally invariant grid construction     ... off
Angular grids for H and He will be reduced by one unit

Total number of grid points                  ...    37879
Total number of batches                      ...      595
Average number of points per batch           ...       63
Average number of grid points per atom       ...     6313

--------------------
COSX GRID GENERATION
--------------------

GRIDX 1
-------
General Integration Accuracy     IntAcc      ... 3.816
Radial Grid Type                 RadialGrid  ... OptM3 with GC (2021)
Angular Grid (max. ang.)         AngularGrid ... 1 (Lebedev-50)
Angular grid pruning method      GridPruning ... 4 (adaptive)
Weight generation scheme         WeightScheme... mBecke (2022)
Basis function cutoff            BFCut       ... 1.0000e-11
Integration weight cutoff        WCut        ... 1.0000e-14
Partially contracted basis set               ... on
Rotationally invariant grid construction     ... off
Angular grids for H and He will be reduced by one unit

Total number of grid points                  ...     5804
Total number of batches                      ...       49
Average number of points per batch           ...      118
Average number of grid points per atom       ...      967
UseSFitting                                  ... on

GRIDX 2
-------
General Integration Accuracy     IntAcc      ... 4.020
Radial Grid Type                 RadialGrid  ... OptM3 with GC (2021)
Angular Grid (max. ang.)         AngularGrid ... 2 (Lebedev-110)
Angular grid pruning method      GridPruning ... 4 (adaptive)
Weight generation scheme         WeightScheme... mBecke (2022)
Basis function cutoff            BFCut       ... 1.0000e-11
Integration weight cutoff        WCut        ... 1.0000e-14
Partially contracted basis set               ... on
Rotationally invariant grid construction     ... off
Angular grids for H and He will be reduced by one unit

Total number of grid points                  ...    11276
Total number of batches                      ...       90
Average number of points per batch           ...      125
Average number of grid points per atom       ...     1879
UseSFitting                                  ... on

GRIDX 3
-------
General Integration Accuracy     IntAcc      ... 4.338
Radial Grid Type                 RadialGrid  ... OptM3 with GC (2021)
Angular Grid (max. ang.)         AngularGrid ... 3 (Lebedev-194)
Angular grid pruning method      GridPruning ... 4 (adaptive)
Weight generation scheme         WeightScheme... mBecke (2022)
Basis function cutoff            BFCut       ... 1.0000e-11
Integration weight cutoff        WCut        ... 1.0000e-14
Partially contracted basis set               ... on
Rotationally invariant grid construction     ... off
Angular grids for H and He will be reduced by one unit

Total number of grid points                  ...    25744
Total number of batches                      ...      203
Average number of points per batch           ...      126
Average number of grid points per atom       ...     4291
UseSFitting                                  ... on
Initializing property integral containers    ... done (  0.0 sec)

SHARK setup successfully completed in   0.5 seconds

Maximum memory used throughout the entire STARTUP-calculation: 15.3 MB
[ga04:869892] 17 more processes have sent help message help-mpi-btl-openib.txt / error in device init
[ga04:869892] Set MCA parameter "orte_base_help_aggregate" to 0 to see all help / error messages
--------------------------------------------------------------------------
WARNING: There was an error initializing an OpenFabrics device.

  Local host:   ga04
  Local device: mlx5_0
--------------------------------------------------------------------------


           ************************************************************
           *        Program running with 18 parallel MPI-processes    *
           *              working on a common directory               *
           ************************************************************
-------------------------------------------------------------------------------
                                 ORCA GUESS
                   Start orbitals & Density for SCF / CASSCF
-------------------------------------------------------------------------------

------------
SCF SETTINGS
------------
Hamiltonian:
 Density Functional     Method          .... DFT(GTOs)
 Exchange Functional    Exchange        .... B88
   X-Alpha parameter    XAlpha          ....  0.666667
   Becke's b parameter  XBeta           ....  0.004200
 Correlation Functional Correlation     .... LYP
 LDA part of GGA corr.  LDAOpt          .... VWN-5
 Gradients option       PostSCFGGA      .... off
 Hybrid DFT is turned on
   Fraction HF Exchange ScalHFX         ....  0.200000
   Scaling of DF-GGA-X  ScalDFX         ....  0.720000
   Scaling of DF-GGA-C  ScalDFC         ....  0.810000
   Scaling of DF-LDA-C  ScalLDAC        ....  1.000000
   Perturbative correction              ....  0.000000
   NL short-range parameter             ....  4.800000
 RI-approximation to the Coulomb term is turned on
   Number of AuxJ basis functions       .... 296
   RIJ-COSX (HFX calculated with COS-X)).... on


General Settings:
 Integral files         IntName         .... input
 Hartree-Fock type      HFTyp           .... RHF
 Total Charge           Charge          ....    0
 Multiplicity           Mult            ....    1
 Number of Electrons    NEL             ....   52
 Basis Dimension        Dim             ....  175
 Nuclear Repulsion      ENuc            ....    280.1068109512 Eh

Convergence Acceleration:
 AO-DIIS                CNVDIIS         .... on
   Start iteration      DIISMaxIt       ....    12
   Startup error        DIISStart       ....  0.200000
   # of expansion vecs  DIISMaxEq       ....     5
   Bias factor          DIISBfac        ....   1.050
   Max. coefficient     DIISMaxC        ....  10.000
 MO-DIIS                CNVKDIIS        .... off
 Trust-Rad. Augm. Hess. CNVTRAH         .... auto
   Auto Start mean grad. ratio tolernc. ....  1.125000
   Auto Start start iteration           ....    50
   Auto Start num. interpolation iter.  ....    10
   Max. Number of Micro iterations      ....    24
   Max. Number of Macro iterations      .... Maxiter - #DIIS iter
   Number of Davidson start vectors     ....     2
   Converg. threshold    (grad. norm)   ....   1.000e-05
   Grad. Scal. Fac. for Micro threshold ....   0.100
   Minimum threshold for Micro iter.    ....   1.000e-02
   NR start threshold (gradient norm)   ....   1.000e-04
   Initial trust radius                 ....   0.400
   Minimum AH scaling param. (alpha)    ....   1.000
   Maximum AH scaling param. (alpha)    .... 1000.000
   Quad. conv. algorithm                .... NR
   White noise on init. David. guess    .... on
   Maximum white noise                  ....   0.010
   Pseudo random numbers                .... off
   Inactive MOs                         .... canonical
   Orbital update algorithm             .... Taylor
   Preconditioner                       .... Diag
   Full preconditioner red. dimension   ....   250
 SOSCF                  CNVSOSCF        .... on
   Start iteration      SOSCFMaxIt      ....   150
   Startup grad/error   SOSCFStart      ....  0.003300
   Hessian update       SOSCFHessUp     .... L-BFGS
 Level Shifting         CNVShift        .... on
   Level shift para.    LevelShift      ....    0.2500
   Turn off err/grad.   ShiftErr        ....    0.0010
 Zerner damping         CNVZerner       .... off
 Static damping         CNVDamp         .... on
   Fraction old density DampFac         ....    0.7000
   Max. Damping (<1)    DampMax         ....    0.9800
   Min. Damping (>=0)   DampMin         ....    0.0000
   Turn off err/grad.   DampErr         ....    0.1000

SCF Procedure:
 Maximum # iterations   MaxIter         ....   125
 SCF integral mode      SCFMode         .... Direct
   Integral package                     .... SHARK and LIBINT hybrid scheme
 Reset frequency        DirectResetFreq ....    20
 Integral Threshold     Thresh          ....  2.500e-11 Eh
 Primitive CutOff       TCut            ....  2.500e-12 Eh

Convergence Tolerance:
 Convergence Check Mode ConvCheckMode   .... Total+1el-Energy
 Convergence forced     ConvForced      .... 0
 Energy Change          TolE            ....  1.000e-08 Eh
 1-El. energy change                    ....  1.000e-05 Eh
 Orbital Gradient       TolG            ....  1.000e-05
 Orbital Rotation angle TolX            ....  1.000e-05
 DIIS Error             TolErr          ....  5.000e-07

------------------------------
INITIAL GUESS: MODEL POTENTIAL
------------------------------
Loading Hartree-Fock densities                     ... done
Calculating cut-offs                               ... done
Initializing the effective Hamiltonian             ... done
Setting up the integral package (SHARK)            ... done
Starting the Coulomb interaction                   ... done (   0.0 sec)
Making the grid                                    ... done (   0.0 sec)
Mapping shells                                     ... done
Starting the XC term evaluation                    ... done (   0.0 sec)
  promolecular density results
     # of electrons  =     52.001119182
     EX              =    -60.773800054
     EC              =     -1.963135534
     EX+EC           =    -62.736935588
Transforming the Hamiltonian                       ... done (   0.0 sec)
Diagonalizing the Hamiltonian                      ... done (   0.0 sec)
Back transforming the eigenvectors                 ... done (   0.0 sec)
Now organizing SCF variables                       ... done
                      ------------------
                      INITIAL GUESS DONE (   0.1 sec)
                      ------------------
             **** ENERGY FILE WAS UPDATED (input.en.tmp) ****
Finished Guess after   0.6 sec
Maximum memory used throughout the entire GUESS-calculation: 9.8 MB
[ga04:869975] 17 more processes have sent help message help-mpi-btl-openib.txt / error in device init
[ga04:869975] Set MCA parameter "orte_base_help_aggregate" to 0 to see all help / error messages
--------------------------------------------------------------------------
WARNING: There was an error initializing an OpenFabrics device.

  Local host:   ga04
  Local device: mlx5_0
--------------------------------------------------------------------------


           ************************************************************
           *        Program running with 18 parallel MPI-processes    *
           *              working on a common directory               *
           ************************************************************

-------------------------------------------------------------------------------------------
                                      ORCA LEAN-SCF
                              memory conserving SCF solver
-------------------------------------------------------------------------------------------

--------------------
CPCM SOLVATION MODEL
--------------------
CPCM parameters:
  Epsilon                                         ...      80.1510
  Refrac                                          ...       1.3328
  Rsolv                                           ...       1.3000
  Surface type                                    ... GAUSSIAN VDW
  Discretization scheme                           ... Constant charge density
    Threshold for H atoms                         ...       5.0000 (charges/Ang^2)
    Threshold for non-H atoms                     ...       5.0000 (charges/Ang^2)
  Epsilon function type                           ...         CPCM
Solvent:                                          ... WATER
Radii:
  Scheme                                          ... Element-dependent radii
  Radius for Li used is    4.1272 Bohr (=   2.1840 Ang.)
  Radius for F  used is    3.3335 Bohr (=   1.7640 Ang.)
  Radius for O  used is    3.4469 Bohr (=   1.8240 Ang.)
  Radius for P  used is    4.0818 Bohr (=   2.1600 Ang.)
Calculating surface                               ...        done! (  0.0s)
Cavity surface points                             ...          866
Cavity Volume                                     ...     835.5955
Cavity Surface-area                               ...     511.2096
Calculating surface distance matrix               ...        done! (  0.0s)
Performing Cholesky decomposition & store         ...        done! (  0.0s)
Overall time for CPCM initialization              ...                 0.0s

----------------------------------------D-I-I-S--------------------------------------------
Iteration    Energy (Eh)           Delta-E    RMSDP     MaxDP     DIISErr   Damp  Time(sec)
-------------------------------------------------------------------------------------------
               ***  Starting incremental Fock matrix formation  ***
    1    -698.0960519810955702     0.00e+00  5.45e-03  2.69e-01  4.04e-01  0.700   0.3
Warning: op=0 Small HOMO/LUMO gap (   0.015) - skipping pre-diagonalization
         Will do a full diagonalization
    2    -698.4595753790831623    -3.64e-01  2.96e-03  1.04e-01  9.84e-02  0.700   0.2
                               ***Turning on AO-DIIS***
    3    -698.5578203392919932    -9.82e-02  2.06e-03  1.00e-01  5.19e-02  0.700   0.2
    4    -698.6265733151039967    -6.88e-02  5.16e-03  2.74e-01  5.95e-02  0.000   0.2
    5    -698.8116593176150673    -1.85e-01  7.91e-04  2.54e-02  7.60e-02  0.000   0.2
    6    -698.8290220805281479    -1.74e-02  8.54e-04  2.48e-02  3.76e-02  0.000   0.2
    7    -698.8380236532707386    -9.00e-03  3.35e-04  1.17e-02  9.51e-03  0.000   0.2
    8    -698.8386972707960467    -6.74e-04  1.39e-04  5.34e-03  4.05e-03  0.000   0.2
                              *** Initializing SOSCF ***
---------------------------------------S-O-S-C-F--------------------------------------
Iteration    Energy (Eh)           Delta-E    RMSDP     MaxDP     MaxGrad    Time(sec)
--------------------------------------------------------------------------------------
    9    -698.8388258099507766    -1.29e-04  8.80e-05  2.01e-03  2.58e-03     0.2
               *** Restarting incremental Fock matrix formation ***
   10    -698.8388808004347084    -5.50e-05  1.79e-04  4.87e-03  1.29e-03     0.2
   11    -698.8388237506173937     5.70e-05  2.07e-04  4.42e-03  3.49e-03     0.2
   12    -698.8389914025433427    -1.68e-04  8.23e-05  2.22e-03  5.04e-04     0.2
   13    -698.8389685125880533     2.29e-05  5.80e-05  1.09e-03  1.56e-03     0.2
   14    -698.8390021905081539    -3.37e-05  3.92e-05  1.92e-03  2.64e-04     0.2
   15    -698.8389995806394381     2.61e-06  1.98e-05  6.57e-04  5.96e-04     0.2
   16    -698.8390048413109525    -5.26e-06  1.38e-05  8.67e-04  7.64e-05     0.2
   17    -698.8390048878638936    -4.66e-08  7.17e-06  4.89e-04  9.97e-05     0.2
   18    -698.8390051700457661    -2.82e-07  3.45e-06  7.10e-05  2.05e-05     0.2
   19    -698.8390051846245115    -1.46e-08  3.06e-06  7.45e-05  1.71e-05     0.2
   20    -698.8390052098238812    -2.52e-08  2.73e-06  6.29e-05  7.76e-06     0.2
   21    -698.8390052145748541    -4.75e-09  5.58e-07  1.34e-05  1.54e-06     0.2
                 **** Energy Check signals convergence ****

               *****************************************************
               *                     SUCCESS                       *
               *           SCF CONVERGED AFTER  21 CYCLES          *
               *****************************************************

Recomputing exchange energy using gridx3       ... done (    0.214 sec)
Old exchange energy                            :    -12.155329178 Eh
New exchange energy                            :    -12.155332107 Eh
Exchange energy change after final integration :     -0.000002929 Eh
Total energy after final integration           :   -698.839008143 Eh
             **** ENERGY FILE WAS UPDATED (input.en.tmp) ****

----------------
TOTAL SCF ENERGY
----------------

Total Energy       :       -698.83900814311573 Eh          -19016.37619 eV

Components:
Nuclear Repulsion  :        280.10681095117587 Eh            7622.09383 eV
Electronic Energy  :       -978.86191821125146 Eh          -26636.18695 eV
One Electron Energy:      -1530.08737407960348 Eh          -41635.79417 eV
Two Electron Energy:        551.22545586835201 Eh           14999.60722 eV
CPCM Dielectric    :         -0.08389795449916 Eh              -2.28298 eV

Virial components:
Potential Energy   :      -1395.90857049143733 Eh          -37984.60330 eV
Kinetic Energy     :        697.06956234832171 Eh           18968.22712 eV
Virial Ratio       :          2.00253840633757

DFT components:
N(Alpha)           :       25.999991727208 electrons
N(Beta)            :       25.999991727208 electrons
N(Total)           :       51.999983454415 electrons
E(X)               :      -48.548759679570 Eh       
E(C)               :       -2.319221273010 Eh       
E(XC)              :      -50.867980952579 Eh       

CPCM Solvation Model Properties:
Surface-charge          :         -0.01060899541063
Corrected charge        :          0.00000000000000
Outlying charge corr.   :          0.00000893784001 Eh               0.00024 eV
Free-energy (cav+disp)  :  This term is not implemented in the current solvation scheme

---------------
SCF CONVERGENCE
---------------

  Last Energy change         ...    4.7510e-09  Tolerance :   1.0000e-08
  Last MAX-Density change    ...    1.3412e-05  Tolerance :   1.0000e-07
  Last RMS-Density change    ...    5.5754e-07  Tolerance :   5.0000e-09
  Last DIIS Error            ...    2.5760e-03  Tolerance :   5.0000e-07
  Last Orbital Gradient      ...    1.5401e-06  Tolerance :   1.0000e-05
  Last Orbital Rotation      ...    4.1883e-05  Tolerance :   1.0000e-05


----------------
ORBITAL ENERGIES
----------------

  NO   OCC          E(Eh)            E(eV) 
   0   2.0000     -77.173438     -2099.9960 
   1   2.0000     -24.650204      -670.7661 
   2   2.0000     -24.649374      -670.7436 
   3   2.0000     -19.145775      -520.9830 
   4   2.0000     -19.145392      -520.9726 
   5   2.0000      -6.636874      -180.5985 
   6   2.0000      -4.799647      -130.6050 
   7   2.0000      -4.798675      -130.5786 
   8   2.0000      -4.795655      -130.4964 
   9   2.0000      -2.095592       -57.0240 
  10   2.0000      -1.227963       -33.4146 
  11   2.0000      -1.109461       -30.1900 
  12   2.0000      -0.959631       -26.1129 
  13   2.0000      -0.896533       -24.3959 
  14   2.0000      -0.606557       -16.5053 
  15   2.0000      -0.496787       -13.5183 
  16   2.0000      -0.470678       -12.8078 
  17   2.0000      -0.461798       -12.5662 
  18   2.0000      -0.450221       -12.2511 
  19   2.0000      -0.384722       -10.4688 
  20   2.0000      -0.356221        -9.6933 
  21   2.0000      -0.344861        -9.3841 
  22   2.0000      -0.293075        -7.9750 
  23   2.0000      -0.292103        -7.9485 
  24   2.0000      -0.283291        -7.7087 
  25   2.0000      -0.270475        -7.3600 
  26   0.0000      -0.190068        -5.1720 
  27   0.0000      -0.032763        -0.8915 
  28   0.0000      -0.002161        -0.0588 
  29   0.0000       0.003312         0.0901 
  30   0.0000       0.042486         1.1561 
  31   0.0000       0.069751         1.8980 
  32   0.0000       0.073811         2.0085 
  33   0.0000       0.096217         2.6182 
  34   0.0000       0.163964         4.4617 
  35   0.0000       0.255286         6.9467 
  36   0.0000       0.261348         7.1116 
*Only the first 10 virtual orbitals were printed.

                    ********************************
                    * MULLIKEN POPULATION ANALYSIS *
                    ********************************

-----------------------
MULLIKEN ATOMIC CHARGES
-----------------------
   0 Li:    0.906157
   1 F :   -0.286057
   2 O :   -0.452411
   3 P :    0.572751
   4 F :   -0.280801
   5 O :   -0.459639
Sum of atomic charges:    0.0000000

--------------------------------
MULLIKEN REDUCED ORBITAL CHARGES
--------------------------------
  0 Lis       :     2.045893  s :     2.045893
      pz      :     0.017876  p :     0.047950
      px      :     0.005428
      py      :     0.024645

  1 F s       :     3.914483  s :     3.914483
      pz      :     1.883451  p :     5.357616
      px      :     1.787449
      py      :     1.686717
      dz2     :     0.002232  d :     0.013576
      dxz     :     0.002828
      dyz     :     0.002170
      dx2y2   :     0.002954
      dxy     :     0.003391
      f0      :     0.000040  f :     0.000383
      f+1     :     0.000063
      f-1     :     0.000039
      f+2     :     0.000064
      f-2     :     0.000053
      f+3     :     0.000082
      f-3     :     0.000041

  2 O s       :     3.897275  s :     3.897275
      pz      :     1.402316  p :     4.539344
      px      :     1.493374
      py      :     1.643655
      dz2     :     0.002077  d :     0.015222
      dxz     :     0.003520
      dyz     :     0.000615
      dx2y2   :     0.005976
      dxy     :     0.003033
      f0      :     0.000038  f :     0.000569
      f+1     :     0.000091
      f-1     :     0.000022
      f+2     :     0.000085
      f-2     :     0.000022
      f+3     :     0.000190
      f-3     :     0.000121

  3 P s       :     5.754818  s :     5.754818
      pz      :     2.709759  p :     8.005273
      px      :     2.726989
      py      :     2.568525
      dz2     :     0.105781  d :     0.556585
      dxz     :     0.102068
      dyz     :     0.133284
      dx2y2   :     0.096389
      dxy     :     0.119063
      f0      :     0.020802  f :     0.110572
      f+1     :     0.012331
      f-1     :     0.016233
      f+2     :     0.014994
      f-2     :     0.008323
      f+3     :     0.022527
      f-3     :     0.015362

  4 F s       :     3.911499  s :     3.911499
      pz      :     1.771490  p :     5.355359
      px      :     1.899692
      py      :     1.684177
      dz2     :     0.002012  d :     0.013559
      dxz     :     0.002872
      dyz     :     0.003674
      dx2y2   :     0.002941
      dxy     :     0.002060
      f0      :     0.000043  f :     0.000383
      f+1     :     0.000052
      f-1     :     0.000035
      f+2     :     0.000104
      f-2     :     0.000056
      f+3     :     0.000051
      f-3     :     0.000043

  5 O s       :     3.896873  s :     3.896873
      pz      :     1.464615  p :     4.546761
      px      :     1.412605
      py      :     1.669541
      dz2     :     0.007163  d :     0.015428
      dxz     :     0.003746
      dyz     :     0.003126
      dx2y2   :     0.000699
      dxy     :     0.000694
      f0      :     0.000237  f :     0.000578
      f+1     :     0.000115
      f-1     :     0.000129
      f+2     :     0.000030
      f-2     :     0.000028
      f+3     :     0.000021
      f-3     :     0.000019



                     *******************************
                     * LOEWDIN POPULATION ANALYSIS *
                     *******************************

----------------------
LOEWDIN ATOMIC CHARGES
----------------------
   0 Li:    0.775079
   1 F :   -0.140958
   2 O :   -0.295068
   3 P :    0.100402
   4 F :   -0.140182
   5 O :   -0.299273

-------------------------------
LOEWDIN REDUCED ORBITAL CHARGES
-------------------------------
  0 Lis       :     2.091120  s :     2.091120
      pz      :     0.053864  p :     0.133801
      px      :     0.012290
      py      :     0.067648

  1 F s       :     3.770840  s :     3.770840
      pz      :     1.852794  p :     5.338130
      px      :     1.768372
      py      :     1.716965
      dz2     :     0.004881  d :     0.031062
      dxz     :     0.009522
      dyz     :     0.003855
      dx2y2   :     0.005765
      dxy     :     0.007040
      f0      :     0.000083  f :     0.000925
      f+1     :     0.000211
      f-1     :     0.000089
      f+2     :     0.000169
      f-2     :     0.000106
      f+3     :     0.000183
      f-3     :     0.000085

  2 O s       :     3.718028  s :     3.718028
      pz      :     1.362479  p :     4.543806
      px      :     1.584133
      py      :     1.597194
      dz2     :     0.005342  d :     0.031876
      dxz     :     0.005356
      dyz     :     0.001217
      dx2y2   :     0.014891
      dxy     :     0.005070
      f0      :     0.000099  f :     0.001359
      f+1     :     0.000268
      f-1     :     0.000046
      f+2     :     0.000178
      f-2     :     0.000036
      f+3     :     0.000513
      f-3     :     0.000218

  3 P s       :     5.189177  s :     5.189177
      pz      :     2.795637  p :     8.257610
      px      :     2.818390
      py      :     2.643583
      dz2     :     0.230716  d :     1.080739
      dxz     :     0.176165
      dyz     :     0.242275
      dx2y2   :     0.213168
      dxy     :     0.218414
      f0      :     0.075982  f :     0.372073
      f+1     :     0.043203
      f-1     :     0.047265
      f+2     :     0.050108
      f-2     :     0.029415
      f+3     :     0.081935
      f-3     :     0.044165

  4 F s       :     3.771011  s :     3.771011
      pz      :     1.756324  p :     5.337217
      px      :     1.868544
      py      :     1.712349
      dz2     :     0.003763  d :     0.031033
      dxz     :     0.009526
      dyz     :     0.007659
      dx2y2   :     0.006484
      dxy     :     0.003601
      f0      :     0.000094  f :     0.000921
      f+1     :     0.000178
      f-1     :     0.000080
      f+2     :     0.000268
      f-2     :     0.000109
      f+3     :     0.000097
      f-3     :     0.000096

  5 O s       :     3.719982  s :     3.719982
      pz      :     1.546132  p :     4.546375
      px      :     1.376153
      py      :     1.624090
      dz2     :     0.017223  d :     0.031562
      dxz     :     0.006274
      dyz     :     0.004952
      dx2y2   :     0.001658
      dxy     :     0.001456
      f0      :     0.000653  f :     0.001354
      f+1     :     0.000287
      f-1     :     0.000230
      f+2     :     0.000051
      f-2     :     0.000055
      f+3     :     0.000043
      f-3     :     0.000035



                      *****************************
                      * MAYER POPULATION ANALYSIS *
                      *****************************

  NA   - Mulliken gross atomic population
  ZA   - Total nuclear charge
  QA   - Mulliken gross atomic charge
  VA   - Mayer's total valence
  BVA  - Mayer's bonded valence
  FA   - Mayer's free valence

  ATOM       NA         ZA         QA         VA         BVA        FA
  0 Li     2.0938     3.0000     0.9062     0.1790     0.1790    -0.0000
  1 F      9.2861     9.0000    -0.2861     0.9078     0.9078     0.0000
  2 O      8.4524     8.0000    -0.4524     1.8328     1.8328     0.0000
  3 P     14.4272    15.0000     0.5728     3.6749     3.6749    -0.0000
  4 F      9.2808     9.0000    -0.2808     0.9002     0.9002     0.0000
  5 O      8.4596     8.0000    -0.4596     1.8419     1.8419     0.0000

  Mayer bond orders larger than 0.100000
B(  0-Li,  3-P ) :   0.1327 B(  1-F ,  2-O ) :   0.1042 B(  1-F ,  3-P ) :   0.7112 
B(  1-F ,  5-O ) :   0.1703 B(  2-O ,  3-P ) :   1.0562 B(  2-O ,  4-F ) :   0.1710 
B(  2-O ,  5-O ) :   0.4824 B(  3-P ,  4-F ) :   0.7026 B(  3-P ,  5-O ) :   1.0722 
B(  4-F ,  5-O ) :   0.1036 

-------
TIMINGS
-------

Total SCF time: 0 days 0 hours 0 min 5 sec 

Total time                  ....       5.113 sec
Sum of individual times     ....       5.029 sec  ( 98.4%)

SCF preparation             ....       0.537 sec  ( 10.5%)
Fock matrix formation       ....       3.999 sec  ( 78.2%)
  Startup                   ....       0.054 sec  (  1.4% of F)
  Split-RI-J                ....       0.361 sec  (  9.0% of F)
  Chain of spheres X        ....       2.370 sec  ( 59.3% of F)
  XC integration            ....       0.687 sec  ( 17.2% of F)
    XC Preparation          ....       0.000 sec  (  0.0% of XC)
    Basis function eval.    ....       0.117 sec  ( 17.0% of XC)
    Density eval.           ....       0.093 sec  ( 13.5% of XC)
    XC-Functional eval.     ....       0.026 sec  (  3.8% of XC)
    XC-Potential eval.      ....       0.141 sec  ( 20.6% of XC)
  CPCM terms                ....       0.417 sec  ( 10.4% of F)
Diagonalization             ....       0.000 sec  (  0.0%)
Density matrix formation    ....       0.089 sec  (  1.7%)
Total Energy calculation    ....       0.072 sec  (  1.4%)
Population analysis         ....       0.020 sec  (  0.4%)
Orbital Transformation      ....       0.026 sec  (  0.5%)
Orbital Orthonormalization  ....       0.000 sec  (  0.0%)
DIIS solution               ....       0.174 sec  (  3.4%)
SOSCF solution              ....       0.113 sec  (  2.2%)
[ga04:870051] 17 more processes have sent help message help-mpi-btl-openib.txt / error in device init
[ga04:870051] Set MCA parameter "orte_base_help_aggregate" to 0 to see all help / error messages
Finished LeanSCF after   5.1 sec

Maximum memory used throughout the entire LEANSCF-calculation: 13.8 MB


-------------------------------------------------------------------------------
                          DFT DISPERSION CORRECTION                            
                                                                               
                                DFTD4 V3.4.0                                   
-------------------------------------------------------------------------------
The B3LYP functional is recognized
Active option DFTDOPT                   ...         5   

-------------------------   ----------------
Dispersion correction           -0.008831749
-------------------------   ----------------


-------------------------   --------------------
FINAL SINGLE POINT ENERGY      -698.847839892070
-------------------------   --------------------

--------------------------------------------------------------------------
WARNING: There was an error initializing an OpenFabrics device.

  Local host:   ga04
  Local device: mlx5_0
--------------------------------------------------------------------------


           ************************************************************
           *        Program running with 18 parallel MPI-processes    *
           *              working on a common directory               *
           ************************************************************
------------------------------------------------------------------------------
                         ORCA SCF GRADIENT CALCULATION
------------------------------------------------------------------------------

Nuc. rep. gradient        (SHARK) ... done (  0.0 sec)
HCore & Overlap gradient  (SHARK) ... done (  0.0 sec)
Split-RIJ-J gradient      (SHARK) ... done (  0.2 sec)
COSX-gradient                     ... done (  0.8 sec)
XC gradient                       ... done (  0.1 sec)
CPCM gradient                     ... done (  0.1 sec)
Dispersion correction             ... done (  0.0 sec)

-------------------
DISPERSION GRADIENT
-------------------

   1   Li  :    0.001181194    0.003358200    0.003144123
   2   F   :    0.000061725    0.000181183   -0.000077113
   3   O   :    0.000301873    0.000001397    0.000049527
   4   P   :   -0.001442890   -0.003649201   -0.003486205
   5   F   :   -0.000103979    0.000149531    0.000079061
   6   O   :    0.000002078   -0.000041109    0.000290606

Difference to translation invariance:
           :    0.0000000000    0.0000000000    0.0000000000

Difference to rotation invariance:
           :    0.0000000000    0.0000000000    0.0000000000

Norm of the Dispersion gradient    ...    0.0070973368
RMS gradient                       ...    0.0016728583
MAX gradient                       ...    0.0036492010

------------------
CARTESIAN GRADIENT
------------------

   1   Li  :    0.000821737   -0.001763644   -0.000957420
   2   F   :   -0.081658422   -0.013248103    0.134019515
   3   O   :    0.053499176    0.027447140   -0.014189609
   4   P   :   -0.089761043   -0.031504099   -0.081451840
   5   F   :    0.125179905   -0.006689331   -0.095421120
   6   O   :   -0.008081353    0.025758038    0.058000474

Difference to translation invariance:
           :    0.0000000001   -0.0000000000    0.0000000000

Difference to rotation invariance:
           :    0.0003170148   -0.0011818126   -0.0004124820

Norm of the Cartesian gradient     ...    0.2705977382
RMS gradient                       ...    0.0637804985
MAX gradient                       ...    0.1340195146

-------
TIMINGS
-------

Total SCF gradient time     ....        1.359 sec

Densities                   ....       0.001 sec  (  0.0%)
One electron gradient       ....       0.021 sec  (  1.5%)
RI-J Coulomb gradient       ....       0.219 sec  ( 16.1%)
COSX gradient               ....       0.825 sec  ( 60.7%)
XC gradient                 ....       0.113 sec  (  8.3%)
CPCM gradient               ....       0.135 sec  ( 10.0%)
   A-Matrix (El+Nuc)        ....       0.019 sec  (  1.4%)
   Potential                ....       0.117 sec  (  8.6%)

Maximum memory used throughout the entire SCFGRAD-calculation: 28.6 MB
[ga04:870155] 17 more processes have sent help message help-mpi-btl-openib.txt / error in device init
[ga04:870155] Set MCA parameter "orte_base_help_aggregate" to 0 to see all help / error messages
------------------------------------------------------------------------------
                         ORCA GEOMETRY RELAXATION STEP
------------------------------------------------------------------------------

Reading the OPT-File                    .... done
Getting information on internals        .... done
Copying old internal coords+grads       .... done
Making the new internal coordinates     .... (2022 redundants) done
Validating the new internal coordinates .... (2022 redundants) done
Calculating the B-matrix                .... done
Calculating the G,G- and P matrices     .... done
Transforming gradient to internals      .... done
Projecting the internal gradient        .... done
Number of atoms                         ....   6
Number of internal coordinates          ....  24
Current Energy                          ....  -698.847839892 Eh
Current gradient norm                   ....     0.270597738 Eh/bohr
Maximum allowed component of the step   ....  0.300
Current trust radius                    ....  0.300
Evaluating the initial hessian          ....  (Almloef) done
Projecting the Hessian                  .... done
Forming the augmented Hessian           .... done
Diagonalizing the augmented Hessian     .... done
Last element of RFO vector              ....  0.872287597
Lowest eigenvalues of augmented Hessian:
 -0.100680734  0.030668444  0.071687477  0.107373746  0.172444256
Length of the computed step             ....  0.560587129
Warning: the length of the step is outside the trust region - taking restricted step instead
The input lambda is                     ....     0.029655
   iter:   5  x=   -0.122161  g=    4.964137 f(x)=     0.445980
   iter:  10  x=   -0.372079  g=    0.300675 f(x)=     0.000025
The output lambda is                    ....    -0.372079 (12 iterations)
The final length of the internal step   ....  0.300000000
Converting the step to Cartesian space:
 Initial RMS(Int)=    0.0612372436
Transforming coordinates:
 Iter   0:  RMS(Cart)=    0.0633451065 RMS(Int)=    0.0613676237
 Iter   5:  RMS(Cart)=    0.0000000053 RMS(Int)=    0.0000000040
done
Storing new coordinates                 .... done

                                .--------------------.
          ----------------------|Geometry convergence|-------------------------
          Item                value                   Tolerance       Converged
          ---------------------------------------------------------------------
          RMS gradient        0.0382527073            0.0000300000      NO
          MAX gradient        0.1208306098            0.0001000000      NO
          RMS step            0.0612372436            0.0006000000      NO
          MAX step            0.2176327964            0.0010000000      NO
          ........................................................
          Max(Bonds)      0.1152      Max(Angles)    3.86
          Max(Dihed)        3.77      Max(Improp)    0.00
          ---------------------------------------------------------------------

The optimization has not yet converged - more geometry cycles are needed


    ---------------------------------------------------------------------------
                         Redundant Internal Coordinates
                            (Angstroem and degrees)

        Definition                    Value    dE/dq     Step     New-Value
    ----------------------------------------------------------------------------
     1. B(P   3,O   2)                1.7355  0.048571 -0.0285    1.7069   
     2. B(P   3,Li  0)                2.9706  0.001646 -0.0022    2.9684   
     3. B(P   3,F   1)                1.7179 -0.022409  0.0163    1.7342   
     4. B(F   4,P   3)                1.7179 -0.021681  0.0159    1.7337   
     5. B(F   4,F   1)                1.7074 -0.120831  0.1152    1.8226   
     6. B(O   5,P   3)                1.7354  0.051091 -0.0300    1.7054   
     7. A(P   3,F   1,F   4)           60.20  0.017752   -1.92     58.28   
     8. A(F   1,P   3,O   2)           74.75 -0.037232    2.75     77.50   
     9. A(Li  0,P   3,O   2)           98.27  0.017944   -1.16     97.11   
    10. A(Li  0,P   3,F   4)          146.11  0.019586   -1.73    144.38   
    11. A(F   1,P   3,F   4)           59.60 -0.035114    3.81     63.41   
    12. A(O   2,P   3,F   4)          113.31 -0.046670    3.86    117.17   
    13. A(Li  0,P   3,F   1)          121.92  0.026758   -2.51    119.41   
    14. A(Li  0,P   3,O   5)          123.08  0.023885   -1.81    121.27   
    15. A(F   1,P   3,O   5)          113.29 -0.044933    3.73    117.01   
    16. A(O   2,P   3,O   5)           82.95  0.031540   -3.09     79.86   
    17. A(F   4,P   3,O   5)           74.79 -0.032474    2.32     77.10   
    18. A(F   1,F   4,P   3)           60.20  0.017362   -1.89     58.31   
    19. D(O   5,P   3,F   1,F   4)    -54.29  0.035766   -3.26    -57.54   
    20. D(Li  0,P   3,F   1,F   4)    140.21  0.009349   -0.61    139.60   
    21. D(O   2,P   3,F   1,F   4)   -129.46  0.000703    0.37   -129.08   
    22. D(F   1,F   4,P   3,O   5)    129.39 -0.002988   -0.13    129.26   
    23. D(F   1,F   4,P   3,O   2)     54.20 -0.041161    3.77     57.98   
    24. D(F   1,F   4,P   3,Li  0)   -103.05  0.005441   -1.20   -104.26   
    ----------------------------------------------------------------------------

Geometry step timings:
Preparation and reading OPT file:      0.000 s (10.342 %)
Internal coordinates            :      0.000 s ( 1.116 %)
B/P matrices and projection     :      0.000 s ( 8.780 %)
Hessian update/contruction      :      0.000 s (32.738 %)
Making the step                 :      0.000 s (11.012 %)
Converting the step to Cartesian:      0.000 s ( 2.232 %)
Storing new data                :      0.000 s (14.286 %)
Checking convergence            :      0.000 s ( 0.000 %)
Final printing                  :      0.000 s (18.824 %)
Total time                      :      0.001 s
--------------------------------------------------------------------------
WARNING: There was an error initializing an OpenFabrics device.

  Local host:   ga04
  Local device: mlx5_0
--------------------------------------------------------------------------
[ga04:870231] 17 more processes have sent help message help-mpi-btl-openib.txt / error in device init
[ga04:870231] Set MCA parameter "orte_base_help_aggregate" to 0 to see all help / error messages

Time for energy+gradient        :      9.993 s
Time for complete geometry iter :     10.847 s

         *************************************************************
         *                GEOMETRY OPTIMIZATION CYCLE   2            *
         *************************************************************
---------------------------------
CARTESIAN COORDINATES (ANGSTROEM)
---------------------------------
  Li    -3.397082    2.369922   -2.077146
  F     -1.910473    5.935763   -0.678589
  O     -0.935543    4.105402   -0.099734
  P     -2.606970    4.451432   -0.113802
  F     -3.119349    5.902206    0.685144
  O     -2.391586    4.075650    1.535690

----------------------------
CARTESIAN COORDINATES (A.U.)
----------------------------
  NO LB      ZA    FRAG     MASS         X           Y           Z
   0 Li    3.0000    0     6.941   -6.419555    4.478503   -3.925238
   1 F     9.0000    0    18.998   -3.610270   11.216967   -1.282348
   2 O     8.0000    0    15.999   -1.767921    7.758085   -0.188469
   3 P    15.0000    0    30.974   -4.926460    8.411987   -0.215055
   4 F     9.0000    0    18.998   -5.894715   11.153553    1.294734
   5 O     8.0000    0    15.999   -4.519442    7.701863    2.902033

--------------------------------
INTERNAL COORDINATES (ANGSTROEM)
--------------------------------
 Li     0   0   0     0.000000000000     0.00000000     0.00000000
 F      1   0   0     4.108673203687     0.00000000     0.00000000
 O      2   1   0     2.153087086091    61.15472195     0.00000000
 P      3   2   1     1.706928000046    51.83421475   314.10332364
 F      4   3   2     1.733664491897   117.08060767   308.94377580
 O      4   3   2     1.705411219238    79.84516287   239.25888371

---------------------------
INTERNAL COORDINATES (A.U.)
---------------------------
 Li     0   0   0     0.000000000000     0.00000000     0.00000000
 F      1   0   0     7.764267128749     0.00000000     0.00000000
 O      2   1   0     4.068744935194    61.15472195     0.00000000
 P      3   2   1     3.225626450408    51.83421475   314.10332364
 F      4   3   2     3.276151097789   117.08060767   308.94377580
 O      4   3   2     3.222760150077    79.84516287   239.25888371

--------------------------------------------------------------------------
WARNING: There was an error initializing an OpenFabrics device.

  Local host:   ga04
  Local device: mlx5_0
--------------------------------------------------------------------------


           ************************************************************
           *        Program running with 18 parallel MPI-processes    *
           *              working on a common directory               *
           ************************************************************
------------------------------------------------------------------------------
                   ___                                                        
                  /   \      - P O W E R E D   B Y -                         
                 /     \                                                     
                 |  |  |   _    _      __       _____    __    __             
                 |  |  |  | |  | |    /  \     |  _  \  |  |  /  |          
                  \  \/   | |  | |   /    \    | | | |  |  | /  /          
                 / \  \   | |__| |  /  /\  \   | |_| |  |  |/  /          
                |  |  |   |  __  | /  /__\  \  |    /   |      \           
                |  |  |   | |  | | |   __   |  |    \   |  |\   \          
                \     /   | |  | | |  |  |  |  | |\  \  |  | \   \       
                 \___/    |_|  |_| |__|  |__|  |_| \__\ |__|  \__/        
                                                                              
                      - O R C A' S   B I G   F R I E N D -                    
                                      &                                       
                       - I N T E G R A L  F E E D E R -                       
                                                                              
 v1 FN, 2020, v2 2021, v3 2022-2024                                           
------------------------------------------------------------------------------


----------------------
SHARK INTEGRAL PACKAGE
----------------------

Number of atoms                             ...      6
Number of basis functions                   ...    175
Number of shells                            ...     65
Maximum angular momentum                    ...      3
Integral batch strategy                     ... SHARK/LIBINT Hybrid
RI-J (if used) integral strategy            ... SPLIT-RIJ (Revised 2003 algorithm where possible)
Printlevel                                  ...      1
Contraction scheme used                     ... SEGMENTED contraction
Prescreening option                         ... SCHWARTZ
   Thresh                                   ... 2.500e-11
   Tcut                                     ... 2.500e-12
   Tpresel                                  ... 2.500e-12 
Coulomb Range Separation                    ... NOT USED
Exchange Range Separation                   ... NOT USED
Multipole approximations                    ... NOT USED
Finite Nucleus Model                        ... NOT USED
CABS basis                                  ... NOT available
Auxiliary Coulomb fitting basis             ... AVAILABLE
   # of basis functions in Aux-J            ...    296
   # of shells in Aux-J                     ...     92
   Maximum angular momentum in Aux-J        ...      4
Auxiliary J/K fitting basis                 ... NOT available
Auxiliary Correlation fitting basis         ... NOT available
Auxiliary 'external' fitting basis          ... NOT available

Checking pre-screening integrals            ... done (  0.0 sec) Dimension = 65
Check shell pair data                       ... done (  0.0 sec)
Shell pair information
Shell pair cut-off parameter TPreSel        ...   2.5e-12
Total number of shell pairs                 ...      2145
Shell pairs after pre-screening             ...      1935
Total number of primitive shell pairs       ...      7521
Primitive shell pairs kept                  ...      5037
          la=0 lb=0:    377 shell pairs
          la=1 lb=0:    550 shell pairs
          la=1 lb=1:    202 shell pairs
          la=2 lb=0:    268 shell pairs
          la=2 lb=1:    190 shell pairs
          la=2 lb=2:     53 shell pairs
          la=3 lb=0:    134 shell pairs
          la=3 lb=1:     96 shell pairs
          la=3 lb=2:     50 shell pairs
          la=3 lb=3:     15 shell pairs

Calculating one electron integrals          ... done (  0.0 sec)
Calculating RI/J V-Matrix + Cholesky decomp.... done (  0.0 sec)
Calculating Nuclear repulsion               ... done (  0.0 sec) ENN=    278.567581991262 Eh

Diagonalization of the overlap matrix:
Smallest eigenvalue                        ... 2.857e-03
Time for diagonalization                   ...    0.002 sec
Threshold for overlap eigenvalues          ... 1.000e-07
Number of eigenvalues below threshold      ... 0
Time for construction of square roots      ...    0.002 sec
Total time needed                          ...    0.007 sec

-------------------
DFT GRID GENERATION
-------------------

General Integration Accuracy     IntAcc      ... 4.388
Radial Grid Type                 RadialGrid  ... OptM3 with GC (2021)
Angular Grid (max. ang.)         AngularGrid ... 4 (Lebedev-302)
Angular grid pruning method      GridPruning ... 4 (adaptive)
Weight generation scheme         WeightScheme... mBecke (2022)
Basis function cutoff            BFCut       ... 1.0000e-11
Integration weight cutoff        WCut        ... 1.0000e-14
Partially contracted basis set               ... off
Rotationally invariant grid construction     ... off
Angular grids for H and He will be reduced by one unit

Total number of grid points                  ...    37879
Total number of batches                      ...      595
Average number of points per batch           ...       63
Average number of grid points per atom       ...     6313

--------------------
COSX GRID GENERATION
--------------------

GRIDX 1
-------
General Integration Accuracy     IntAcc      ... 3.816
Radial Grid Type                 RadialGrid  ... OptM3 with GC (2021)
Angular Grid (max. ang.)         AngularGrid ... 1 (Lebedev-50)
Angular grid pruning method      GridPruning ... 4 (adaptive)
Weight generation scheme         WeightScheme... mBecke (2022)
Basis function cutoff            BFCut       ... 1.0000e-11
Integration weight cutoff        WCut        ... 1.0000e-14
Partially contracted basis set               ... on
Rotationally invariant grid construction     ... off
Angular grids for H and He will be reduced by one unit

Total number of grid points                  ...     5801
Total number of batches                      ...       48
Average number of points per batch           ...      120
Average number of grid points per atom       ...      967
UseSFitting                                  ... on

GRIDX 2
-------
General Integration Accuracy     IntAcc      ... 4.020
Radial Grid Type                 RadialGrid  ... OptM3 with GC (2021)
Angular Grid (max. ang.)         AngularGrid ... 2 (Lebedev-110)
Angular grid pruning method      GridPruning ... 4 (adaptive)
Weight generation scheme         WeightScheme... mBecke (2022)
Basis function cutoff            BFCut       ... 1.0000e-11
Integration weight cutoff        WCut        ... 1.0000e-14
Partially contracted basis set               ... on
Rotationally invariant grid construction     ... off
Angular grids for H and He will be reduced by one unit

Total number of grid points                  ...    11268
Total number of batches                      ...       91
Average number of points per batch           ...      123
Average number of grid points per atom       ...     1878
UseSFitting                                  ... on

GRIDX 3
-------
General Integration Accuracy     IntAcc      ... 4.338
Radial Grid Type                 RadialGrid  ... OptM3 with GC (2021)
Angular Grid (max. ang.)         AngularGrid ... 3 (Lebedev-194)
Angular grid pruning method      GridPruning ... 4 (adaptive)
Weight generation scheme         WeightScheme... mBecke (2022)
Basis function cutoff            BFCut       ... 1.0000e-11
Integration weight cutoff        WCut        ... 1.0000e-14
Partially contracted basis set               ... on
Rotationally invariant grid construction     ... off
Angular grids for H and He will be reduced by one unit

Total number of grid points                  ...    25737
Total number of batches                      ...      203
Average number of points per batch           ...      126
Average number of grid points per atom       ...     4290
UseSFitting                                  ... on
Initializing property integral containers    ... done (  0.0 sec)

SHARK setup successfully completed in   0.5 seconds

Maximum memory used throughout the entire STARTUP-calculation: 15.5 MB
[ga04:870307] 17 more processes have sent help message help-mpi-btl-openib.txt / error in device init
[ga04:870307] Set MCA parameter "orte_base_help_aggregate" to 0 to see all help / error messages
--------------------------------------------------------------------------
WARNING: There was an error initializing an OpenFabrics device.

  Local host:   ga04
  Local device: mlx5_0
--------------------------------------------------------------------------


           ************************************************************
           *        Program running with 18 parallel MPI-processes    *
           *              working on a common directory               *
           ************************************************************
Occupation numbers will be reassigned to an Aufbau configuration
             **** ENERGY FILE WAS UPDATED (input.en.tmp) ****
Finished Guess after   0.5 sec
Maximum memory used throughout the entire GUESS-calculation: 10.1 MB
[ga04:870384] 17 more processes have sent help message help-mpi-btl-openib.txt / error in device init
[ga04:870384] Set MCA parameter "orte_base_help_aggregate" to 0 to see all help / error messages
--------------------------------------------------------------------------
WARNING: There was an error initializing an OpenFabrics device.

  Local host:   ga04
  Local device: mlx5_0
--------------------------------------------------------------------------


           ************************************************************
           *        Program running with 18 parallel MPI-processes    *
           *              working on a common directory               *
           ************************************************************
--------------------
CPCM SOLVATION MODEL
--------------------
CPCM parameters:
  Epsilon                                         ...      80.1510
  Refrac                                          ...       1.3328
  Rsolv                                           ...       1.3000
  Surface type                                    ... GAUSSIAN VDW
  Discretization scheme                           ... Constant charge density
    Threshold for H atoms                         ...       5.0000 (charges/Ang^2)
    Threshold for non-H atoms                     ...       5.0000 (charges/Ang^2)
  Epsilon function type                           ...         CPCM
Solvent:                                          ... WATER
Radii:
  Scheme                                          ... Element-dependent radii
[...]
      px      :     1.839935
      py      :     1.701689
      dz2     :     0.001493  d :     0.011079
      dxz     :     0.001141
      dyz     :     0.002744
      dx2y2   :     0.002502
      dxy     :     0.003200
      f0      :     0.000039  f :     0.000379
      f+1     :     0.000017
      f-1     :     0.000050
      f+2     :     0.000044
      f-2     :     0.000076
      f+3     :     0.000091
      f-3     :     0.000062

  2 O s       :     3.910017  s :     3.910017
      pz      :     1.187123  p :     4.452854
      px      :     1.473336
      py      :     1.792395
      dz2     :     0.004506  d :     0.029624
      dxz     :     0.009489
      dyz     :     0.004523
      dx2y2   :     0.004931
      dxy     :     0.006175
      f0      :     0.000087  f :     0.001485
      f+1     :     0.000268
      f-1     :     0.000099
      f+2     :     0.000241
      f-2     :     0.000337
      f+3     :     0.000179
      f-3     :     0.000274

  3 P s       :     5.712587  s :     5.712587
      pz      :     2.695638  p :     7.960629
      px      :     2.615721
      py      :     2.649270
      dz2     :     0.130726  d :     0.662921
      dxz     :     0.110522
      dyz     :     0.135435
      dx2y2   :     0.120552
      dxy     :     0.165687
      f0      :     0.018161  f :     0.126595
      f+1     :     0.018988
      f-1     :     0.018011
      f+2     :     0.011864
      f-2     :     0.016577
      f+3     :     0.022450
      f-3     :     0.020544

  4 F s       :     3.914134  s :     3.914134
      pz      :     1.875592  p :     5.459417
      px      :     1.759356
      py      :     1.824468
      dz2     :     0.001121  d :     0.008916
      dxz     :     0.001782
      dyz     :     0.001176
      dx2y2   :     0.001921
      dxy     :     0.002917
      f0      :     0.000029  f :     0.000282
      f+1     :     0.000031
      f-1     :     0.000017
      f+2     :     0.000023
      f-2     :     0.000062
      f+3     :     0.000048
      f-3     :     0.000071

  5 O s       :     3.843641  s :     3.843641
      pz      :     1.338229  p :     4.397227
      px      :     1.368052
      py      :     1.690946
      dz2     :     0.010534  d :     0.038908
      dxz     :     0.012913
      dyz     :     0.008790
      dx2y2   :     0.003663
      dxy     :     0.003008
      f0      :     0.000315  f :     0.001721
      f+1     :     0.000446
      f-1     :     0.000297
      f+2     :     0.000235
      f-2     :     0.000261
      f+3     :     0.000066
      f-3     :     0.000101



                     *******************************
                     * LOEWDIN POPULATION ANALYSIS *
                     *******************************

----------------------
LOEWDIN ATOMIC CHARGES
----------------------
   0 Li:    0.626858
   1 F :   -0.097865
   2 O :   -0.259680
   3 P :    0.054887
   4 F :   -0.200510
   5 O :   -0.123690

-------------------------------
LOEWDIN REDUCED ORBITAL CHARGES
-------------------------------
  0 Lis       :     2.166291  s :     2.166291
      pz      :     0.076546  p :     0.206850
      px      :     0.037397
      py      :     0.092907

  1 F s       :     3.706371  s :     3.706371
      pz      :     1.810591  p :     5.371380
      px      :     1.819118
      py      :     1.741672
      dz2     :     0.002900  d :     0.019472
      dxz     :     0.001683
      dyz     :     0.003785
      dx2y2   :     0.003926
      dxy     :     0.007178
      f0      :     0.000065  f :     0.000642
      f+1     :     0.000028
      f-1     :     0.000087
      f+2     :     0.000063
      f-2     :     0.000120
      f+3     :     0.000202
      f-3     :     0.000076

  2 O s       :     3.662039  s :     3.662039
      pz      :     1.212095  p :     4.517505
      px      :     1.534438
      py      :     1.770973
      dz2     :     0.013869  d :     0.075407
      dxz     :     0.022828
      dyz     :     0.010669
      dx2y2   :     0.012833
      dxy     :     0.015208
      f0      :     0.000419  f :     0.004728
      f+1     :     0.001138
      f-1     :     0.000425
      f+2     :     0.000760
      f-2     :     0.000923
      f+3     :     0.000397
      f-3     :     0.000667

  3 P s       :     5.019606  s :     5.019606
      pz      :     2.796503  p :     8.219673
      px      :     2.700818
      py      :     2.722352
      dz2     :     0.258262  d :     1.288269
      dxz     :     0.216546
      dyz     :     0.250146
      dx2y2   :     0.215467
      dxy     :     0.347848
      f0      :     0.062694  f :     0.417565
      f+1     :     0.063877
      f-1     :     0.054248
      f+2     :     0.036790
      f-2     :     0.062927
      f+3     :     0.071067
      f-3     :     0.065962

  4 F s       :     3.742976  s :     3.742976
      pz      :     1.848131  p :     5.439982
      px      :     1.769508
      py      :     1.822343
      dz2     :     0.001696  d :     0.017033
      dxz     :     0.003338
      dyz     :     0.002961
      dx2y2   :     0.002451
      dxy     :     0.006588
      f0      :     0.000062  f :     0.000518
      f+1     :     0.000047
      f-1     :     0.000027
      f+2     :     0.000034
      f-2     :     0.000140
      f+3     :     0.000089
      f-3     :     0.000120

  5 O s       :     3.564837  s :     3.564837
      pz      :     1.456669  p :     4.463835
      px      :     1.366019
      py      :     1.641148
      dz2     :     0.025433  d :     0.089512
      dxz     :     0.029708
      dyz     :     0.015614
      dx2y2   :     0.009512
      dxy     :     0.009245
      f0      :     0.001031  f :     0.005506
      f+1     :     0.001602
      f-1     :     0.000636
      f+2     :     0.000834
      f-2     :     0.000949
      f+3     :     0.000217
      f-3     :     0.000238



                      *****************************
                      * MAYER POPULATION ANALYSIS *
                      *****************************

  NA   - Mulliken gross atomic population
  ZA   - Total nuclear charge
  QA   - Mulliken gross atomic charge
  VA   - Mayer's total valence
  BVA  - Mayer's bonded valence
  FA   - Mayer's free valence

  ATOM       NA         ZA         QA         VA         BVA        FA
  0 Li     2.1737     3.0000     0.8263     0.3218     0.3218    -0.0000
  1 F      9.3054     9.0000    -0.3054     0.9710     0.9710    -0.0000
  2 O      8.3940     8.0000    -0.3940     1.5733     1.5733    -0.0000
  3 P     14.4627    15.0000     0.5373     3.8603     3.8603    -0.0000
  4 F      9.3827     9.0000    -0.3827     0.8673     0.8673    -0.0000
  5 O      8.2815     8.0000    -0.2815     1.8990     1.8990    -0.0000

  Mayer bond orders larger than 0.100000
B(  0-Li,  3-P ) :   0.2709 B(  1-F ,  3-P ) :   0.9779 B(  2-O ,  3-P ) :   0.7066 
B(  2-O ,  5-O ) :   0.8441 B(  3-P ,  4-F ) :   0.8582 B(  3-P ,  5-O ) :   1.0467 


-------
TIMINGS
-------

Total SCF time: 0 days 0 hours 0 min 1 sec 

Total time                  ....       1.737 sec
Sum of individual times     ....       1.704 sec  ( 98.1%)

SCF preparation             ....       0.551 sec  ( 31.8%)
Fock matrix formation       ....       0.956 sec  ( 55.1%)
  Startup                   ....       0.013 sec  (  1.4% of F)
  Split-RI-J                ....       0.059 sec  (  6.1% of F)
  Chain of spheres X        ....       0.669 sec  ( 70.0% of F)
  XC integration            ....       0.122 sec  ( 12.7% of F)
    Basis function eval.    ....       0.024 sec  ( 19.4% of XC)
    Density eval.           ....       0.017 sec  ( 14.4% of XC)
    XC-Functional eval.     ....       0.005 sec  (  4.1% of XC)
    XC-Potential eval.      ....       0.028 sec  ( 22.6% of XC)
  CPCM terms                ....       0.074 sec  (  7.7% of F)
Diagonalization             ....       0.000 sec  (  0.0%)
Density matrix formation    ....       0.016 sec  (  0.9%)
Total Energy calculation    ....       0.015 sec  (  0.9%)
Population analysis         ....       0.105 sec  (  6.0%)
Orbital Transformation      ....       0.010 sec  (  0.6%)
Orbital Orthonormalization  ....       0.000 sec  (  0.0%)
DIIS solution               ....       0.015 sec  (  0.8%)
SOSCF solution              ....       0.035 sec  (  2.0%)
Finished LeanSCF after   1.9 sec

Maximum memory used throughout the entire LEANSCF-calculation: 18.1 MB
[ga04:884892] 17 more processes have sent help message help-mpi-btl-openib.txt / error in device init
[ga04:884892] Set MCA parameter "orte_base_help_aggregate" to 0 to see all help / error messages


-------------------------------------------------------------------------------
                          DFT DISPERSION CORRECTION                            
                                                                               
                                DFTD4 V3.4.0                                   
-------------------------------------------------------------------------------
The B3LYP functional is recognized
Active option DFTDOPT                   ...         5   

-------------------------   ----------------
Dispersion correction           -0.007804088
-------------------------   ----------------


-------------------------   --------------------
FINAL SINGLE POINT ENERGY      -699.059016387120
-------------------------   --------------------

                                *** OPTIMIZATION RUN DONE ***

--------------------------------------------------------------------------
WARNING: There was an error initializing an OpenFabrics device.

  Local host:   ga04
  Local device: mlx5_0
--------------------------------------------------------------------------


           ************************************************************
           *        Program running with 18 parallel MPI-processes    *
           *              working on a common directory               *
           ************************************************************

------------------------------------------------------------------------------
                              ORCA PROPERTY CALCULATIONS
------------------------------------------------------------------------------

GBWName                                 ... input.gbw
Number of atoms                         ...      6
Number of basis functions               ...    175
Max core memory                         ...   5000 MB

Electric properties:
Dipole moment                           ... YES
Quadrupole moment                       ...  NO
Static polarizability (Dipole/Dipole)   ...  NO
Static polarizability (Dipole/Quad.)    ...  NO
Static polarizability (Quad./Quad.)     ...  NO
Static polarizability (Velocity)        ...  NO

Atomic electric properties:
Dipole moment                           ...  NO
Quadrupole moment                       ...  NO
Static polarizability                   ...  NO

Choice of electric origin               ... Center of mass
Position of electric origin             ...    -4.417077     8.846025    -0.001530

General magnetic properties:
Magnetizability                         ...  NO

EPR properties:
g-Tensor (aka g-matrix)                 ...  NO
Zero-Field splitting spin-orbit         ...  NO
Zero-field splitting spin-spin          ...  NO
Hyperfine couplings                     ...  NO (   0 nuclei)
Quadrupole couplings                    ...  NO (   0 nuclei)
Contact density                         ...  NO (   0 nuclei)

NMR properties:
Chemical shifts                         ...  NO (   0 nuclei)
Spin-rotation constants                 ...  NO (   0 nuclei)
Spin-spin couplings                     ...  NO (   0 nuclei,    0 pairs)

Choice of magnetic origin               ... GIAO
Position of magnetic origin             ...     0.000000     0.000000     0.000000

Properties with geometric perturbations:
SCF Hessian                             ...  NO
IR spectrum                             ...  NO
VCD spectrum                            ...  NO
X-ray spectroscopy properties:
SCF XES/XAS/RIXS spectra                ...  NO


-------------
DIPOLE MOMENT
-------------

Method             : SCF
Type of density    : Electron Density
Multiplicity       :   1
Irrep              :   0
Energy             :  -699.0512122991494834 Eh
Relativity type    : 
Basis              : AO
                                X                 Y                 Z
Electronic contribution:     -4.310048056      -2.501909632      -5.318891172
Nuclear contribution   :      1.956459215      -0.249445242       1.985407611
                        -----------------------------------------
Total Dipole Moment    :     -2.353588841      -2.751354875      -3.333483561
                        -----------------------------------------
Magnitude (a.u.)       :      4.921528901
Magnitude (Debye)      :     12.509532319



--------------------
Rotational spectrum 
--------------------
 
Rotational constants in cm-1:             0.135639             0.104507             0.099044 
Rotational constants in MHz :          4066.345199          3133.054466          2969.277189 

Dipole components along the rotational axes: 
x,y,z [a.u.] :    -0.708865    -4.832255     0.606853 
x,y,z [Debye]:    -1.801792   -12.282616     1.542497 

 

Dipole moment calculation done in   0.1 sec 

Maximum memory used throughout the entire PROP-calculation: 11.6 MB
[ga04:884972] 17 more processes have sent help message help-mpi-btl-openib.txt / error in device init
[ga04:884972] Set MCA parameter "orte_base_help_aggregate" to 0 to see all help / error messages
--------------------------------------------------------------------------
WARNING: There was an error initializing an OpenFabrics device.

  Local host:   ga04
  Local device: mlx5_0
--------------------------------------------------------------------------
[ga04:885050] 17 more processes have sent help message help-mpi-btl-openib.txt / error in device init
[ga04:885050] Set MCA parameter "orte_base_help_aggregate" to 0 to see all help / error messages

--------------------------------
SUGGESTED CITATIONS FOR THIS RUN
--------------------------------

Below you find a list of papers that are relevant to this ORCA run
We neither can nor want to force you to cite these papers, but we appreciate if you do
You receive ORCA, which is the product of decades of hard work by many enthusiastic individuals, for free
The only thing we kindly ask in return is that you cite our papers,
We deeply appreciate it, if you show your appreciation for ORCA by not just citing the generic ORCA reference.

Please note that relegating all ORCA citations to the supporting information does *not* help us.
SI sections are not indexed - citations you put there will not count into any citation statistics
But we need these citations in order to attract the funding resources that allow us to do what we are doing

Therefore, if you are a happy ORCA user, please consider citing a few of the papers listed below in the main body of your paper

In addition to the list printed below, the program has created the file input.bibtex that contains the list in bibtex format
You can import this file easily into all common literature databanks and citation aid programs


List of essential papers. We consider these as the minimum necessary citations

  1. Neese,F.
     Software update: the ORCA program system, version 5.0
     WIRES Comput. Molec. Sci., 2022 12(1)e1606
     doi.org/10.1002/wcms.1606

List of papers to cite with high priority. The work reported in these papers was absolutely
necessary for this run to complete.
Our perspective: the developers of density functionals and basis sets usually get cited in chemistry papers
Good! But without the algorithms to do something with them, the functionals or basis sets would not do anything.
Hence, in our opinion, the algorithm design and method developments papers are equally worthy of getting cited

  1. Neese,F.
     An improvement of the resolution of the identity approximation for the formation of the Coulomb matrix
     J. Comp. Chem., 2003 24(14)1740-1747
     doi.org/10.1002/jcc.10318
  2. Neese,F.; Wennmohs,F.; Hansen,A.; Becker,U.
     Efficient, approximate and parallel Hartree-Fock and hybrid DFT calculations. A 'chain-of-spheres' algorithm for the Hartree-Fock exchange
     Chem. Phys., 2009 356(1-3)98-109
     doi.org/10.1016/j.chemphys.2008.10.036
  3. Garcia-Rates,M.; Neese,F.
     Effect of the Solute Cavity on the Solvation Energy and its Derivatives within the Framework of the Gaussian Charge Scheme
     J. Comput. Chem., 2020 41 922-939
     doi.org/10.1002/jcc.26139
  4. Helmich-Paris,B.; de Souza,B.; Neese,F.; Izsák,R.
     An improved chain of spheres for exchange algorithm
     J. Chem. Phys., 2021 155 104109
     doi.org/doi: 10.1063/5.0058766.
  5. Neese,F.
     The SHARK Integral Generation and Digestion System
     J. Comp. Chem., 2022  1-16
     doi.org/10.1002/jcc.26942
  6. Caldeweyher,E.; Bannwarth,C.; Grimme,S.
     Extension of the D3 dispersion coefficient model
     J. Chem. Phys., 2017 147 034112
     doi.org/10.1063/1.4993215
  7. Caldeweyher,E.; Ehlert,S.; Hansen,A.; Neugebauer,H.; Spicher,S.; Bannwarth,C.; Grimme,S.
     A generally applicable atomic-charge dependent London dispersion correction
     J. Chem. Phys., 2019 150 154122
     doi.org/10.1063/1.5090222
  8. Caldeweyher,E.; Mewes,J.; Ehlert,S.; Grimme,S.
     Extension and evaluation of the D4 London-dispersion model for periodic systems
     Phys. Chem. Chem. Phys., 2020 22(16)8499-8512
     doi.org/10.1039/D0CP00502A
  9. Wittmann,L.; Gordiy,I.; Friede,M.; Helmich-Paris,B.; Grimme,S.; Hansen,A.; Bursch,M.
     Extension of the D3 and D4 London Dispersion Corrections to the full Actinides Series
     Phys. Chem. Chem. Phys., 2024 26(32)21379-21394
     doi.org/https://doi.org/10.1039/D4CP01514B 

List of suggested additional citations. These are papers that are important in the 'surrounding' of 
of this run, or papers that preceded the highly important papers. If you like your results we are grateful for a citation.

  1. Izsak,R.; Neese,F.
     An overlap fitted chain of spheres exchange method
     J. Chem. Phys., 2011 135 144105
     doi.org/10.1063/1.3646921
  2. Izsak,R.; Hansen,A.; Neese,F.
     The resolution of identity and chain of spheres approximations for the LPNO-CCSD singles Fock term
     Molec. Phys., 2012 110 2413-2417
     doi.org/10.1080/00268976.2012.687466
  3. Neese,F.
     The ORCA program system
     WIRES Comput. Molec. Sci., 2012 2(1)73-78
     doi.org/10.1002/wcms.81
  4. Izsak,R.; Neese,F.; Klopper,W.
     Robust fitting techniques in the chain of spheres approximation to the Fock exchange: The role of the complementary space
     J. Chem. Phys., 2013 139 
     doi.org/10.1063/1.4819264
  5. Neese,F.
     Software update: the ORCA program system, version 4.0
     WIRES Comput. Molec. Sci., 2018 8(1)1-6
     doi.org/10.1002/wcms.1327
  6. Neese,F.; Wennmohs,F.; Becker,U.; Riplinger,C.
     The ORCA quantum chemistry program package
     J. Chem. Phys., 2020 152 Art. No. L224108
     doi.org/10.1063/5.0004608

List of optional additional citations

  1. Neese,F.
     Approximate second-order SCF convergence for spin unrestricted wavefunctions
     Chem. Phys. Lett., 2000 325(1-3)93-98
     doi.org/10.1016/s0009-2614(00)00662-x

Timings for individual modules:

Sum of individual times          ...      236.917 sec (=   3.949 min)
Startup calculation              ...       39.101 sec (=   0.652 min)  16.5 %
SCF iterations                   ...      130.741 sec (=   2.179 min)  55.2 %
Property calculations            ...        0.831 sec (=   0.014 min)   0.4 %
SCF Gradient evaluation          ...       66.093 sec (=   1.102 min)  27.9 %
Geometry relaxation              ...        0.150 sec (=   0.003 min)   0.1 %
                             ****ORCA TERMINATED NORMALLY****
TOTAL RUN TIME: 0 days 0 hours 4 minutes 22 seconds 606 msec
