
                                 *****************
                                 * O   R   C   A *
                                 *****************

                                            #,                                       
                                            ###                                      
                                            ####                                     
                                            #####                                    
                                            ######                                   
                                           ########,                                 
                                     ,,################,,,,,                         
                               ,,#################################,,                 
                          ,,##########################################,,             
                       ,#########################################, ''#####,          
                    ,#############################################,,   '####,        
                  ,##################################################,,,,####,       
                ,###########''''           ''''###############################       
              ,#####''   ,,,,##########,,,,          '''####'''          '####       
            ,##' ,,,,###########################,,,                        '##       
           ' ,,###''''                  '''############,,,                           
         ,,##''                                '''############,,,,        ,,,,,,###''
      ,#''                                            '''#######################'''  
     '                                                          ''''####''''         
             ,#######,   #######,   ,#######,      ##                                
            ,#'     '#,  ##    ##  ,#'     '#,    #''#        ,####,   ,####,        
            ##       ##  ##   ,#'  ##            #'  '#       #'       #'  '#        
            ##       ##  #######   ##           ,######,      #####,   #    #        
            '#,     ,#'  ##    ##  '#,     ,#' ,#      #,     #,   #   #,  ,#        
             '#######'   ##     ##  '#######'  #'      '#     '####' # '####'        



                #########################################################
                #                        -***-                          #
                #          Department of theory and spectroscopy        #
                #                                                       #
                #                      Frank Neese                      #
                #                                                       #
                #     Directorship, Architecture, Infrastructure        #
                #                    SHARK, DRIVERS                     #
                #        Core code/Algorithms in most modules           #
                #                                                       #
                #        Max Planck Institute fuer Kohlenforschung      #
                #                Kaiser Wilhelm Platz 1                 #
                #                 D-45470 Muelheim/Ruhr                 #
                #                      Germany                          #
                #                                                       #
                #                  All rights reserved                  #
                #                        -***-                          #
                #########################################################


                         Program Version 6.0.1  -  RELEASE   -


 With contributions from (in alphabetic order):
[Max-Planck-Institut fuer Kohlenforschung]                               
  Daniel Aravena         : Magnetic Suceptibility                        
  Michael Atanasov       : Ab Initio Ligand Field Theory (pilot matlab implementation)
  Alexander A. Auer      : GIAO ZORA, VPT2 properties, NMR spectrum      
  Ute Becker             : All parallelization in ORCA, NUMFREQ, NUMCALC 
  Giovanni Bistoni       : ED, misc. LED, open-shell LED, HFLD           
  Martin Brehm           : Molecular dynamics                            
  Dmytro Bykov           : pre 5.0 version of the SCF Hessian            
  Marcos Casanova-Páez   : Triplet and SCS-CIS(D). UHF-(DLPNO)-IP/EA/STEOM-CCSD. UHF-CVS-IP/STEOM-CCSD   
  Vijay G. Chilkuri      : MRCI spin determinant printing, contributions to CSF-ICE 
  Pauline Colinet        : FMM embedding                                 
  Dipayan Datta          : RHF DLPNO-CCSD density                        
  Achintya Kumar Dutta   : EOM-CC, STEOM-CC                              
  Nicolas Foglia         : Exact transition moments, OPA infrastructure, MCD improvements    
  Dmitry Ganyushin       : Spin-Orbit,Spin-Spin,Magnetic field MRCI      
  Miquel Garcia-Rates    : C-PCM and meta-GGA Hessian, CCSD/C-PCM, Gaussian charge scheme 
  Tiago L. C. Gouveia    : GS-ROHF, GS-ROCIS                             
  Yang Guo               : DLPNO-NEVPT2, F12-NEVPT2, CIM, IAO-localization        
  Andreas Hansen         : Spin unrestricted coupled pair/coupled cluster methods 
  Ingolf Harden          : AUTO-CI MPn and infrastructure                
  Benjamin Helmich-Paris : MC-RPA, TRAH-(SCF,CASSCF), AVAS, COSX integrals, SCF dyn. polar. 
  Lee Huntington         : MR-EOM, pCC                                   
  Robert Izsak           : Overlap fitted RIJCOSX, COSX-SCS-MP3, EOM     
  Riya Kayal             : Wick's Theorem for AUTO-CI, AUTO-CI UHF-CCSDT 
  Emily Kempfer          : AUTO-CI, RHF CISDT and CCSDT                  
  Christian Kollmar      : KDIIS, OOCD, Brueckner-CCSD(T), CCSD density, CASPT2, CASPT2-K, improved NEVPT2 
  Axel Koslowski         : Symmetry handling                             
  Simone Kossmann        : meta-GGA functionals, TD-DFT gradient, OOMP2, (MP2 Hessian; deprecated post 5.0) 
  Lucas Lang             : DCDCAS                                        
  Marvin Lechner         : AUTO-CI (C++ implementation), FIC-MRCC        
  Spencer Leger          : CASSCF response                               
  Dagmar Lenk            : GEPOL surface, SMD, ORCA-2-JSON               
  Dimitrios Liakos       : Extrapolation schemes; Compound Job, initial MDCI parallelization 
  Dimitrios Manganas     : Further ROCIS development; embedding schemes. LFT, Crystal Embedding 
  Dimitrios Pantazis     : SARC Basis sets                               
  Anastasios Papadopoulos: AUTO-CI, single reference methods and gradients 
  Taras Petrenko         : pre 6.0 DFT Hessian and TD-DFT gradient, (ASA, deprecated), ECA, 1-Electron XAS/XES, NRVS 
  Peter Pinski           : DLPNO-MP2, DLPNO-MP2 Gradient                 
  Christoph Reimann      : Effective Core Potentials                     
  Marius Retegan         : Local ZFS, SOC                                
  Christoph Riplinger    : Optimizer, TS searches, QM/MM, DLPNO-CCSD(T), (RO)-DLPNO pert. Triples 
  Michael Roemelt        : Original ROCIS implementation                 
  Masaaki Saitow         : Open-shell DLPNO-CCSD energy and density      
  Barbara Sandhoefer     : DKH picture change effects                    
  Kantharuban Sivalingam : CASSCF convergence/infrastructure, NEVPT2 and variants, FIC-MRCI 
  Bernardo de Souza      : ESD, SOC TD-DFT                               
  Georgi L. Stoychev     : AutoAux, RI-MP2 NMR, DLPNO-MP2 response, X2C  
  Van Anh Tran           : RI-MP2 g-tensors                              
  Willem Van den Heuvel  : Paramagnetic NMR                              
  Zikuan Wang            : NOTCH, Electric field optimization            
  Frank Wennmohs         : Technical directorship and infrastructure     
  Hang Xu                : AUTO-CI-Response properties                   
                                                                         
[FACCTs GmbH]                                                            
  Markus Bursch, Miquel Garcia-Rates, Christoph Riplinger, Bernardo de Souza, Georgi L. Stoychev 
                                                                 
  APM, Basis sets (HGBS, AHGBS, def-TZVP (Ac-Lr), def2-XVPD (La-Lu)), CI-OPT, improved COSX, DLPNO-Multilevel,           
  DOCKER, DRACO, updates on ESD, GOAT, IRC, LR-CPCM, MBIS, meta-GGA TD-DFT gradient, ML-optimized integration grids, 
  MM, NACMEs, nearIR, NEB, NEB-TS, NL-DFT gradient (VV10), 2- and 3-layer-ONIOM, interface openCOSMO-RS, QMMM,   
  Crystal-QMMM, SF, symmetry and pop. for TD-DFT, r2SCAN hybrids, SOLVATOR                                   
                                                                         
[Other institutions]                                                     
  V. Asgeirsson          : NEB                                           
  Christoph Bannwarth    : sTDA-DFT, sTD-DFT, PBEh-3c, B97-3c, D3        
  Sebastian Ehlert       : rSCAN, r2SCAN, r2SCAN-3c, D4, dhf basis sets  
  Marvin Friede          : D4 for Fr, Ra, Ac-Lr                          
  Lars Goerigk           : TD-DFT with DH, B97 family of functionals     
  Stefan Grimme          : VdW corrections, initial TS optimization, DFT functionals, gCP, sTDA/sTD-DF 
  Waldemar Hujo          : DFT-NL                                        
  H. Jonsson             : NEB                                           
  Holger Kruse           : gCP                                           
  Marcel Mueller         : wB97X-3c, vDZP basis set                      
  Hagen Neugebauer       : wr2SCAN                                       
  Tobias Risthaus        : range-separated hybrid DFT                    
  Lukas Wittmann         : regularized MP2, r2SCAN double-hybrids, wr2SCAN        
                                                                         
We gratefully acknowledge several colleagues who have allowed us to      
interface, adapt or use parts of their codes:                            
  Ed Valeev, F. Pavosevic, A. Kumar             : LibInt (2-el integral package), F12 methods 
  Garnet Chan, S. Sharma, J. Yang, R. Olivares  : DMRG                   
  Ulf Ekstrom                                   : XCFun DFT Library      
  Mihaly Kallay                                 : mrcc  (arbitrary order and MRCC methods)
  Frank Weinhold                                : gennbo (NPA and NBO analysis)           
  Simon Mueller                                 : openCOSMO-RS                            
  Christopher J. Cramer and Donald G. Truhlar   : smd solvation model                     
  S Lehtola, MJT Oliveira, MAL Marques          : LibXC Library                           
  Liviu Ungur et al                             : ANISO software                          


 Your calculation uses the libint2 library for the computation of 2-el integrals
 For citations please refer to: http://libint.valeyev.net

 Your ORCA version has been built with support for libXC version: 6.2.2
 For citations please refer to: https://libxc.gitlab.io

 This ORCA versions uses:
   CBLAS   interface :  Fast vector & matrix operations
   LAPACKE interface :  Fast linear algebra routines
   SCALAPACK package :  Parallel linear algebra routines
   Shared memory     :  Shared parallel matrices
   BLAS/LAPACK       :  OpenBLAS 0.3.27  USE64BITINT DYNAMIC_ARCH NO_AFFINITY SkylakeX SINGLE_THREADED
        Core in use  :  SkylakeX
   Copyright (c) 2011-2014, The OpenBLAS Project


NOTE: MaxCore=5000 MB was set to SCF,MP2,MDCI,CIPSI,MRCI and CIS
      => If you want to overwrite this, your respective input block should be placed after the MaxCore statement
Your calculation utilizes the atom-pairwise dispersion correction
with the Becke-Johnson damping scheme (D3BJ)


Warning: RI is on but no J-basis has been assigned. Assigning Def2/J (nothing to worry about!)
================================================================================

----- Orbital basis set information -----
Your calculation utilizes the basis: 6-311++G(d,p)
   H, Li - Ne  : R. Krishnan, J. S. Binkley, R. Seeger and J. A. Pople, J. Chem. Phys. 72, 650 (1980).
   Na - Ar     : A. D. McLean and G. S. Chandler J. Chem. Phys. 72, 5639, (1980).
   K  - Ca     : J.-P. Blaudeau, M. P. McGrath, L. A. Curtiss and L. Radom, J. Chem. Phys. 107, 5016 (1997).
   Ga - Kr     : L. A. Curtiss, M. P. McGrath, J.-P. Blandeau, N. E. Davis, R. C. Binning and L. Radom, J. Chem. Phys. 103, 6104 (1995).
   Pol./Diff.
   H, Li - Cl  : T. Clark, J. Chandrasekhar and P. v. R. Schleyer, J. Comp. Chem. 4, 294 (1983).
   H - Ne      : M. J. Frisch, J. A. Pople and J. S. Binkley, J. Chem. Phys. 80, 3265 (1984).

----- AuxJ basis set information -----
Your calculation utilizes the auxiliary basis: def2/J
   F. Weigend, Phys. Chem. Chem. Phys. 8, 1057 (2006).

================================================================================
                                        WARNINGS
                       Please study these warnings very carefully!
================================================================================


WARNING: Geometry Optimization
  ===> : Switching off AutoStart
         For restart on a previous wavefunction, please use MOREAD

================================================================================
                                       INPUT FILE
================================================================================
NAME = input.inp
|  1> ! B3LYP D3BJ 6-311++G(d,p) Opt TightSCF RIJCOSX
|  2> 
|  3> %maxcore 5000
|  4> 
|  5> %pal
|  6> nprocs 28
|  7> end
|  8> 
|  9> * xyz 0 1
| 10>   Li         -3.05736949492775      2.40996761486557     -1.72723063184221
| 11>   F          -1.47517471065306      5.84938351487736     -0.63114568946232
| 12>   P          -2.38835571911126      4.85765885235954      0.18241539297365
| 13>   O          -2.48069853759363      3.60179477385979     -0.61956579678572
| 14>   O          -3.57681256875554      5.55570899182973      0.68974465074209
| 15>   F          -1.38259296895873      4.56586125220794      1.35734507437451
| 16> *
| 17> 
| 18> 
| 19>                          ****END OF INPUT****
================================================================================

                       *****************************
                       * Geometry Optimization Run *
                       *****************************

Geometry optimization settings:
Update method            Update   .... BFGS
Choice of coordinates    CoordSys .... (2022) Redundant Internals
Initial Hessian          InHess   .... Almloef's Model
Max. no of cycles        MaxIter  .... 50

Convergence Tolerances:
Energy Change            TolE     ....  5.0000e-06 Eh
Max. Gradient            TolMAXG  ....  3.0000e-04 Eh/bohr
RMS Gradient             TolRMSG  ....  1.0000e-04 Eh/bohr
Max. Displacement        TolMAXD  ....  4.0000e-03 bohr
RMS Displacement         TolRMSD  ....  2.0000e-03 bohr
Strict Convergence                .... False

------------------------------------------------------------------------------
                        ORCA OPTIMIZATION COORDINATE SETUP
------------------------------------------------------------------------------

The optimization will be done in redundant internal coordinates (2022)
Making redundant internal coordinates   ...  (2022 redundants) done
Evaluating the initial hessian          ...  (Almloef) done
Evaluating the coordinates              ...  done
Calculating the B-matrix                .... done
Calculating the G-matrix                .... done
Diagonalizing the G-matrix              .... done
The first mode is                       ....    3
The number of degrees of freedom        ....   12

    -----------------------------------------------------------------
                    Redundant Internal Coordinates


    -----------------------------------------------------------------
         Definition                    Initial Value    Approx d2E/dq
    -----------------------------------------------------------------
      1. B(P   2,F   1)                  1.5746         0.887108   
      2. B(O   3,P   2)                  1.4929         1.288610   
      3. B(O   3,Li  0)                  1.7262         0.789687   
      4. B(O   4,P   2)                  1.4687         1.408656   
      5. B(F   5,P   2)                  1.5739         0.889321   
      6. A(F   1,P   2,O   3)          106.7463         0.599466   
      7. A(F   1,P   2,O   4)          110.3906         0.609862   
      8. A(O   3,P   2,O   4)          122.3651         0.658397   
      9. A(F   1,P   2,F   5)           97.5779         0.556217   
     10. A(O   3,P   2,F   5)          106.5336         0.599754   
     11. A(O   4,P   2,F   5)          110.3250         0.610156   
     12. A(Li  0,O   3,P   2)          161.1071         0.599715   
     13. D(Li  0,O   3,P   2,O   4)     33.9024         0.028713   
     14. D(Li  0,O   3,P   2,F   5)    162.0069         0.028713   
     15. D(Li  0,O   3,P   2,F   1)    -94.5207         0.028713   
    -----------------------------------------------------------------

Number of atoms                         .... 6
Number of degrees of freedom            .... 15


         *************************************************************
         *                GEOMETRY OPTIMIZATION CYCLE   1            *
         *************************************************************
---------------------------------
CARTESIAN COORDINATES (ANGSTROEM)
---------------------------------
  Li    -3.057369    2.409968   -1.727231
  F     -1.475175    5.849384   -0.631146
  P     -2.388356    4.857659    0.182415
  O     -2.480699    3.601795   -0.619566
  O     -3.576813    5.555709    0.689745
  F     -1.382593    4.565861    1.357345

----------------------------
CARTESIAN COORDINATES (A.U.)
----------------------------
  NO LB      ZA    FRAG     MASS         X           Y           Z
   0 Li    3.0000    0     6.941   -5.777591    4.554179   -3.263993
   1 F     9.0000    0    18.998   -2.787676   11.053733   -1.192693
   2 P    15.0000    0    30.974   -4.513338    9.179645    0.344715
   3 O     8.0000    0    15.999   -4.687841    6.806406   -1.170810
   4 O     8.0000    0    15.999   -6.759196   10.498768    1.303428
   5 F     9.0000    0    18.998   -2.612722    8.628227    2.565010

--------------------------------
INTERNAL COORDINATES (ANGSTROEM)
--------------------------------
 Li     0   0   0     0.000000000000     0.00000000     0.00000000
 F      1   0   0     3.941360712946     0.00000000     0.00000000
 P      2   1   0     1.574578989860    50.30157141     0.00000000
 O      3   2   1     1.492948628895   106.74629776    10.58802921
 O      3   2   1     1.468702371643   110.39055106   235.49639850
 F      3   2   1     1.573900983317    97.57794853   120.45455099

---------------------------
INTERNAL COORDINATES (A.U.)
---------------------------
 Li     0   0   0     0.000000000000     0.00000000     0.00000000
 F      1   0   0     7.448092342464     0.00000000     0.00000000
 P      2   1   0     2.975523067062    50.30157141     0.00000000
 O      3   2   1     2.821264040625   106.74629776    10.58802921
 O      3   2   1     2.775445254645   110.39055106   235.49639850
 F      3   2   1     2.974241820378    97.57794853   120.45455099

---------------------
BASIS SET INFORMATION
---------------------
There are 4 groups of distinct atoms

 Group   1 Type Li  : 12s6p1d contracted to 5s4p1d pattern {63111/3111/1}
 Group   2 Type F   : 12s6p1d contracted to 5s4p1d pattern {63111/3111/1}
 Group   3 Type P   : 14s10p1d contracted to 7s6p1d pattern {6311111/421111/1}
 Group   4 Type O   : 12s6p1d contracted to 5s4p1d pattern {63111/3111/1}

Atom   0Li   basis set group =>   1
Atom   1F    basis set group =>   2
Atom   2P    basis set group =>   3
Atom   3O    basis set group =>   4
Atom   4O    basis set group =>   4
Atom   5F    basis set group =>   2
---------------------------------
AUXILIARY/J BASIS SET INFORMATION
---------------------------------
There are 4 groups of distinct atoms

 Group   1 Type Li  : 12s5p4d2f1g contracted to 6s4p3d1f1g pattern {711111/2111/211/2/1}
 Group   2 Type F   : 12s5p4d2f1g contracted to 6s4p3d1f1g pattern {711111/2111/211/2/1}
 Group   3 Type P   : 14s5p5d2f1g contracted to 8s4p3d1f1g pattern {71111111/2111/311/2/1}
 Group   4 Type O   : 12s5p4d2f1g contracted to 6s4p3d1f1g pattern {711111/2111/211/2/1}

Atom   0Li   basis set group =>   1
Atom   1F    basis set group =>   2
Atom   2P    basis set group =>   3
Atom   3O    basis set group =>   4
Atom   4O    basis set group =>   4
Atom   5F    basis set group =>   2
--------------------------------------------------------------------------
WARNING: There was an error initializing an OpenFabrics device.

  Local host:   ga00
  Local device: mlx5_0
--------------------------------------------------------------------------


           ************************************************************
           *        Program running with 28 parallel MPI-processes    *
           *              working on a common directory               *
           ************************************************************
------------------------------------------------------------------------------
                             ORCA STARTUP CALCULATIONS
                           -- RI-GTO INTEGRALS CHOSEN --
------------------------------------------------------------------------------
------------------------------------------------------------------------------
                   ___                                                        
                  /   \      - P O W E R E D   B Y -                         
                 /     \                                                     
                 |  |  |   _    _      __       _____    __    __             
                 |  |  |  | |  | |    /  \     |  _  \  |  |  /  |          
                  \  \/   | |  | |   /    \    | | | |  |  | /  /          
                 / \  \   | |__| |  /  /\  \   | |_| |  |  |/  /          
                |  |  |   |  __  | /  /__\  \  |    /   |      \           
                |  |  |   | |  | | |   __   |  |    \   |  |\   \          
                \     /   | |  | | |  |  |  |  | |\  \  |  | \   \       
                 \___/    |_|  |_| |__|  |__|  |_| \__\ |__|  \__/        
                                                                              
                      - O R C A' S   B I G   F R I E N D -                    
                                      &                                       
                       - I N T E G R A L  F E E D E R -                       
                                                                              
 v1 FN, 2020, v2 2021, v3 2022-2024                                           
------------------------------------------------------------------------------


----------------------
SHARK INTEGRAL PACKAGE
----------------------

Number of atoms                             ...      6
Number of basis functions                   ...    140
Number of shells                            ...     64
Maximum angular momentum                    ...      2
Integral batch strategy                     ... SHARK/LIBINT Hybrid
RI-J (if used) integral strategy            ... SPLIT-RIJ (Revised 2003 algorithm where possible)
Printlevel                                  ...      1
Contraction scheme used                     ... SEGMENTED contraction
Prescreening option                         ... SCHWARTZ
   Thresh                                   ... 2.500e-11
   Tcut                                     ... 2.500e-12
   Tpresel                                  ... 2.500e-12 
Coulomb Range Separation                    ... NOT USED
Exchange Range Separation                   ... NOT USED
Multipole approximations                    ... NOT USED
Finite Nucleus Model                        ... NOT USED
CABS basis                                  ... NOT available
Auxiliary Coulomb fitting basis             ... AVAILABLE
   # of basis functions in Aux-J            ...    296
   # of shells in Aux-J                     ...     92
   Maximum angular momentum in Aux-J        ...      4
Auxiliary J/K fitting basis                 ... NOT available
Auxiliary Correlation fitting basis         ... NOT available
Auxiliary 'external' fitting basis          ... NOT available

Checking pre-screening integrals            ... done (  0.0 sec) Dimension = 64
Check shell pair data                       ... done (  0.0 sec)
Shell pair information
Shell pair cut-off parameter TPreSel        ...   2.5e-12
Total number of shell pairs                 ...      2080
Shell pairs after pre-screening             ...      2008
Total number of primitive shell pairs       ...      7390
Primitive shell pairs kept                  ...      5281
          la=0 lb=0:    492 shell pairs
          la=1 lb=0:    802 shell pairs
          la=1 lb=1:    345 shell pairs
          la=2 lb=0:    192 shell pairs
          la=2 lb=1:    156 shell pairs
          la=2 lb=2:     21 shell pairs

Calculating one electron integrals          ... done (  0.0 sec)
Calculating RI/J V-Matrix + Cholesky decomp.... done (  0.0 sec)
Calculating Nuclear repulsion               ... done (  0.0 sec) ENN=    294.269681556740 Eh

Diagonalization of the overlap matrix:
Smallest eigenvalue                        ... 4.563e-04
Time for diagonalization                   ...    0.002 sec
Threshold for overlap eigenvalues          ... 1.000e-07
Number of eigenvalues below threshold      ... 0
Time for construction of square roots      ...    0.001 sec
Total time needed                          ...    0.004 sec

-------------------
DFT GRID GENERATION
-------------------

General Integration Accuracy     IntAcc      ... 4.388
Radial Grid Type                 RadialGrid  ... OptM3 with GC (2021)
Angular Grid (max. ang.)         AngularGrid ... 4 (Lebedev-302)
Angular grid pruning method      GridPruning ... 4 (adaptive)
Weight generation scheme         WeightScheme... mBecke (2022)
Basis function cutoff            BFCut       ... 1.0000e-11
Integration weight cutoff        WCut        ... 1.0000e-14
Partially contracted basis set               ... off
Rotationally invariant grid construction     ... off
Angular grids for H and He will be reduced by one unit
Diffuse basis detected: some atoms will have their outermost
                        angular grid increased by 1.

Total number of grid points                  ...    39686
Total number of batches                      ...      623
Average number of points per batch           ...       63
Average number of grid points per atom       ...     6614

--------------------
COSX GRID GENERATION
--------------------

GRIDX 1
-------
General Integration Accuracy     IntAcc      ... 3.816
Radial Grid Type                 RadialGrid  ... OptM3 with GC (2021)
Angular Grid (max. ang.)         AngularGrid ... 1 (Lebedev-50)
Angular grid pruning method      GridPruning ... 4 (adaptive)
Weight generation scheme         WeightScheme... mBecke (2022)
Basis function cutoff            BFCut       ... 1.0000e-11
Integration weight cutoff        WCut        ... 1.0000e-14
Partially contracted basis set               ... on
Rotationally invariant grid construction     ... off
Angular grids for H and He will be reduced by one unit
Diffuse basis detected: some atoms will have their outermost
                        angular grid increased by 1.

Total number of grid points                  ...     6249
Total number of batches                      ...       53
Average number of points per batch           ...      117
Average number of grid points per atom       ...     1042
UseSFitting                                  ... on

GRIDX 2
-------
General Integration Accuracy     IntAcc      ... 4.020
Radial Grid Type                 RadialGrid  ... OptM3 with GC (2021)
Angular Grid (max. ang.)         AngularGrid ... 2 (Lebedev-110)
Angular grid pruning method      GridPruning ... 4 (adaptive)
Weight generation scheme         WeightScheme... mBecke (2022)
Basis function cutoff            BFCut       ... 1.0000e-11
Integration weight cutoff        WCut        ... 1.0000e-14
Partially contracted basis set               ... on
Rotationally invariant grid construction     ... off
Angular grids for H and He will be reduced by one unit
Diffuse basis detected: some atoms will have their outermost
                        angular grid increased by 1.

Total number of grid points                  ...    13407
Total number of batches                      ...      108
Average number of points per batch           ...      124
Average number of grid points per atom       ...     2234
UseSFitting                                  ... on

GRIDX 3
-------
General Integration Accuracy     IntAcc      ... 4.338
Radial Grid Type                 RadialGrid  ... OptM3 with GC (2021)
Angular Grid (max. ang.)         AngularGrid ... 3 (Lebedev-194)
Angular grid pruning method      GridPruning ... 4 (adaptive)
Weight generation scheme         WeightScheme... mBecke (2022)
Basis function cutoff            BFCut       ... 1.0000e-11
Integration weight cutoff        WCut        ... 1.0000e-14
Partially contracted basis set               ... on
Rotationally invariant grid construction     ... off
Angular grids for H and He will be reduced by one unit
Diffuse basis detected: some atoms will have their outermost
                        angular grid increased by 1.

Total number of grid points                  ...    29749
Total number of batches                      ...      234
Average number of points per batch           ...      127
Average number of grid points per atom       ...     4958
UseSFitting                                  ... on
Initializing property integral containers    ... done (  0.0 sec)

SHARK setup successfully completed in   0.4 seconds

Maximum memory used throughout the entire STARTUP-calculation: 13.3 MB
[ga00:4111839] 27 more processes have sent help message help-mpi-btl-openib.txt / error in device init
[ga00:4111839] Set MCA parameter "orte_base_help_aggregate" to 0 to see all help / error messages
--------------------------------------------------------------------------
WARNING: There was an error initializing an OpenFabrics device.

  Local host:   ga00
  Local device: mlx5_0
--------------------------------------------------------------------------


           ************************************************************
           *        Program running with 28 parallel MPI-processes    *
           *              working on a common directory               *
           ************************************************************
-------------------------------------------------------------------------------
                                 ORCA GUESS
                   Start orbitals & Density for SCF / CASSCF
-------------------------------------------------------------------------------

------------
SCF SETTINGS
------------
Hamiltonian:
 Density Functional     Method          .... DFT(GTOs)
 Exchange Functional    Exchange        .... B88
   X-Alpha parameter    XAlpha          ....  0.666667
   Becke's b parameter  XBeta           ....  0.004200
 Correlation Functional Correlation     .... LYP
 LDA part of GGA corr.  LDAOpt          .... VWN-5
 Gradients option       PostSCFGGA      .... off
 Hybrid DFT is turned on
   Fraction HF Exchange ScalHFX         ....  0.200000
   Scaling of DF-GGA-X  ScalDFX         ....  0.720000
   Scaling of DF-GGA-C  ScalDFC         ....  0.810000
   Scaling of DF-LDA-C  ScalLDAC        ....  1.000000
   Perturbative correction              ....  0.000000
   NL short-range parameter             ....  4.800000
 RI-approximation to the Coulomb term is turned on
   Number of AuxJ basis functions       .... 296
   RIJ-COSX (HFX calculated with COS-X)).... on


General Settings:
 Integral files         IntName         .... input
 Hartree-Fock type      HFTyp           .... RHF
 Total Charge           Charge          ....    0
 Multiplicity           Mult            ....    1
 Number of Electrons    NEL             ....   52
 Basis Dimension        Dim             ....  140
 Nuclear Repulsion      ENuc            ....    294.2696815567 Eh

Convergence Acceleration:
 AO-DIIS                CNVDIIS         .... on
   Start iteration      DIISMaxIt       ....    12
   Startup error        DIISStart       ....  0.200000
   # of expansion vecs  DIISMaxEq       ....     5
   Bias factor          DIISBfac        ....   1.050
   Max. coefficient     DIISMaxC        ....  10.000
 MO-DIIS                CNVKDIIS        .... off
 Trust-Rad. Augm. Hess. CNVTRAH         .... auto
   Auto Start mean grad. ratio tolernc. ....  1.125000
   Auto Start start iteration           ....    50
   Auto Start num. interpolation iter.  ....    10
   Max. Number of Micro iterations      ....    24
   Max. Number of Macro iterations      .... Maxiter - #DIIS iter
   Number of Davidson start vectors     ....     2
   Converg. threshold    (grad. norm)   ....   1.000e-05
   Grad. Scal. Fac. for Micro threshold ....   0.100
   Minimum threshold for Micro iter.    ....   1.000e-02
   NR start threshold (gradient norm)   ....   1.000e-04
   Initial trust radius                 ....   0.400
   Minimum AH scaling param. (alpha)    ....   1.000
   Maximum AH scaling param. (alpha)    .... 1000.000
   Quad. conv. algorithm                .... NR
   White noise on init. David. guess    .... on
   Maximum white noise                  ....   0.010
   Pseudo random numbers                .... off
   Inactive MOs                         .... canonical
   Orbital update algorithm             .... Taylor
   Preconditioner                       .... Diag
   Full preconditioner red. dimension   ....   250
 SOSCF                  CNVSOSCF        .... on
   Start iteration      SOSCFMaxIt      ....   150
   Startup grad/error   SOSCFStart      ....  0.003300
   Hessian update       SOSCFHessUp     .... L-BFGS
 Level Shifting         CNVShift        .... on
   Level shift para.    LevelShift      ....    0.2500
   Turn off err/grad.   ShiftErr        ....    0.0010
 Zerner damping         CNVZerner       .... off
 Static damping         CNVDamp         .... on
   Fraction old density DampFac         ....    0.7000
   Max. Damping (<1)    DampMax         ....    0.9800
   Min. Damping (>=0)   DampMin         ....    0.0000
   Turn off err/grad.   DampErr         ....    0.1000

SCF Procedure:
 Maximum # iterations   MaxIter         ....   125
 SCF integral mode      SCFMode         .... Direct
   Integral package                     .... SHARK and LIBINT hybrid scheme
 Reset frequency        DirectResetFreq ....    20
 Integral Threshold     Thresh          ....  2.500e-11 Eh
 Primitive CutOff       TCut            ....  2.500e-12 Eh

Convergence Tolerance:
 Convergence Check Mode ConvCheckMode   .... Total+1el-Energy
 Convergence forced     ConvForced      .... 0
 Energy Change          TolE            ....  1.000e-08 Eh
 1-El. energy change                    ....  1.000e-05 Eh
 Orbital Gradient       TolG            ....  1.000e-05
 Orbital Rotation angle TolX            ....  1.000e-05
 DIIS Error             TolErr          ....  5.000e-07

------------------------------
INITIAL GUESS: MODEL POTENTIAL
------------------------------
Loading Hartree-Fock densities                     ... done
Calculating cut-offs                               ... done
Initializing the effective Hamiltonian             ... done
Setting up the integral package (SHARK)            ... done
Starting the Coulomb interaction                   ... done (   0.0 sec)
Making the grid                                    ... done (   0.0 sec)
Mapping shells                                     ... done
Starting the XC term evaluation                    ... done (   0.0 sec)
  promolecular density results
     # of electrons  =     52.000688231
     EX              =    -60.992184618
     EC              =     -1.979362870
     EX+EC           =    -62.971547488
Transforming the Hamiltonian                       ... done (   0.0 sec)
Diagonalizing the Hamiltonian                      ... done (   0.0 sec)
Back transforming the eigenvectors                 ... done (   0.0 sec)
Now organizing SCF variables                       ... done
                      ------------------
                      INITIAL GUESS DONE (   0.1 sec)
                      ------------------
             **** ENERGY FILE WAS UPDATED (input.en.tmp) ****
Finished Guess after   0.7 sec
Maximum memory used throughout the entire GUESS-calculation: 8.9 MB
[ga00:4111961] 27 more processes have sent help message help-mpi-btl-openib.txt / error in device init
[ga00:4111961] Set MCA parameter "orte_base_help_aggregate" to 0 to see all help / error messages
--------------------------------------------------------------------------
WARNING: There was an error initializing an OpenFabrics device.

  Local host:   ga00
  Local device: mlx5_0
--------------------------------------------------------------------------


           ************************************************************
           *        Program running with 28 parallel MPI-processes    *
           *              working on a common directory               *
           ************************************************************

-------------------------------------------------------------------------------------------
                                      ORCA LEAN-SCF
                              memory conserving SCF solver
-------------------------------------------------------------------------------------------

----------------------------------------D-I-I-S--------------------------------------------
Iteration    Energy (Eh)           Delta-E    RMSDP     MaxDP     DIISErr   Damp  Time(sec)
-------------------------------------------------------------------------------------------
               ***  Starting incremental Fock matrix formation  ***
    1    -698.7766643245463456     0.00e+00  4.97e-03  1.18e-01  4.47e-01  0.700   0.1
    2    -698.9618955826201727    -1.85e-01  2.88e-03  5.32e-02  1.65e-01  0.700   0.1
                               ***Turning on AO-DIIS***
    3    -699.0145424047707365    -5.26e-02  7.24e-04  1.28e-02  3.30e-02  0.700   0.1
    4    -699.0511754441906760    -3.66e-02  1.07e-03  2.73e-02  1.48e-02  0.000   0.1
    5    -699.1392148116624412    -8.80e-02  4.07e-04  9.36e-03  1.09e-02  0.000   0.1
                              *** Initializing SOSCF ***
---------------------------------------S-O-S-C-F--------------------------------------
Iteration    Energy (Eh)           Delta-E    RMSDP     MaxDP     MaxGrad    Time(sec)
--------------------------------------------------------------------------------------
    6    -699.1396173634611841    -4.03e-04  1.30e-04  3.04e-03  2.98e-03     0.1
               *** Restarting incremental Fock matrix formation ***
    7    -699.1396721014070863    -5.47e-05  1.03e-04  2.24e-03  3.82e-04     0.1
    8    -699.1396712361881782     8.65e-07  3.97e-05  8.16e-04  5.86e-04     0.1
    9    -699.1396789172536046    -7.68e-06  1.56e-05  2.49e-04  1.05e-04     0.1
   10    -699.1396785485612781     3.69e-07  8.93e-06  1.37e-04  1.52e-04     0.1
   11    -699.1396791787872189    -6.30e-07  2.17e-06  4.52e-05  8.47e-06     0.1
   12    -699.1396791772951929     1.49e-09  7.10e-07  1.61e-05  1.26e-05     0.1
                 **** Energy Check signals convergence ****

               *****************************************************
               *                     SUCCESS                       *
               *           SCF CONVERGED AFTER  12 CYCLES          *
               *****************************************************

Recomputing exchange energy using gridx3       ... done (    0.120 sec)
Old exchange energy                            :    -12.264064200 Eh
New exchange energy                            :    -12.264033093 Eh
Exchange energy change after final integration :      0.000031107 Eh
Total energy after final integration           :   -699.139648070 Eh
             **** ENERGY FILE WAS UPDATED (input.en.tmp) ****

----------------
TOTAL SCF ENERGY
----------------

Total Energy       :       -699.13964807002458 Eh          -19024.55701 eV

Components:
Nuclear Repulsion  :        294.26968155674018 Eh            8007.48513 eV
Electronic Energy  :       -993.40936073403532 Eh          -27032.04299 eV
One Electron Energy:      -1555.73297852566520 Eh          -42333.64655 eV
Two Electron Energy:        562.32361779162989 Eh           15301.60356 eV

Virial components:
Potential Energy   :      -1397.07245078635765 Eh          -38016.27410 eV
Kinetic Energy     :        697.93280271633307 Eh           18991.71708 eV
Virial Ratio       :          2.00172917127407

DFT components:
N(Alpha)           :       26.000061380616 electrons
N(Beta)            :       26.000061380616 electrons
N(Total)           :       52.000122761233 electrons
E(X)               :      -48.814349890469 Eh       
E(C)               :       -2.336732111967 Eh       
E(XC)              :      -51.151082002436 Eh       

---------------
SCF CONVERGENCE
---------------

  Last Energy change         ...   -1.4920e-09  Tolerance :   1.0000e-08
  Last MAX-Density change    ...    1.6111e-05  Tolerance :   1.0000e-07
  Last RMS-Density change    ...    7.1032e-07  Tolerance :   5.0000e-09
  Last DIIS Error            ...    2.9819e-03  Tolerance :   5.0000e-07
  Last Orbital Gradient      ...    1.2579e-05  Tolerance :   1.0000e-05
  Last Orbital Rotation      ...    9.7058e-06  Tolerance :   1.0000e-05


----------------
ORBITAL ENERGIES
----------------

  NO   OCC          E(Eh)            E(eV) 
   0   2.0000     -77.183447     -2100.2684 
   1   2.0000     -24.672001      -671.3593 
   2   2.0000     -24.670121      -671.3081 
   3   2.0000     -19.106865      -519.9242 
   4   2.0000     -19.056680      -518.5586 
   5   2.0000      -6.663771      -181.3304 
   6   2.0000      -4.827302      -131.3576 
   7   2.0000      -4.825990      -131.3219 
   8   2.0000      -4.823131      -131.2441 
   9   2.0000      -2.068060       -56.2748 
  10   2.0000      -1.232615       -33.5411 
  11   2.0000      -1.192011       -32.4363 
  12   2.0000      -1.010191       -27.4887 
  13   2.0000      -0.944771       -25.7085 
  14   2.0000      -0.599846       -16.3226 
  15   2.0000      -0.525136       -14.2897 
  16   2.0000      -0.496917       -13.5218 
  17   2.0000      -0.468558       -12.7501 
  18   2.0000      -0.437872       -11.9151 
  19   2.0000      -0.433220       -11.7885 
  20   2.0000      -0.412540       -11.2258 
  21   2.0000      -0.375723       -10.2239 
  22   2.0000      -0.345654        -9.4057 
  23   2.0000      -0.344378        -9.3710 
  24   2.0000      -0.281911        -7.6712 
  25   2.0000      -0.273754        -7.4492 
  26   0.0000      -0.078870        -2.1462 
  27   0.0000      -0.013897        -0.3782 
  28   0.0000      -0.012720        -0.3461 
  29   0.0000      -0.002500        -0.0680 
  30   0.0000       0.007894         0.2148 
  31   0.0000       0.017829         0.4852 
  32   0.0000       0.018817         0.5120 
  33   0.0000       0.035912         0.9772 
  34   0.0000       0.060264         1.6399 
  35   0.0000       0.073096         1.9890 
  36   0.0000       0.075410         2.0520 
*Only the first 10 virtual orbitals were printed.

                    ********************************
                    * MULLIKEN POPULATION ANALYSIS *
                    ********************************

-----------------------
MULLIKEN ATOMIC CHARGES
-----------------------
   0 Li:    0.740564
   1 F :   -0.213781
   2 P :    0.766050
   3 O :   -0.656347
   4 O :   -0.422955
   5 F :   -0.213531
Sum of atomic charges:    0.0000000

--------------------------------
MULLIKEN REDUCED ORBITAL CHARGES
--------------------------------
  0 Lis       :     2.064080  s :     2.064080
      pz      :     0.064952  p :     0.173950
      px      :     0.041627
      py      :     0.067371
      dz2     :     0.002310  d :     0.021405
      dxz     :     0.004154
      dyz     :     0.007627
      dx2y2   :     0.002762
      dxy     :     0.004551

  1 F s       :     3.857765  s :     3.857765
      pz      :     1.811561  p :     5.351516
      px      :     1.784491
      py      :     1.755464
      dz2     :     0.000557  d :     0.004500
      dxz     :     0.000914
      dyz     :     0.001079
      dx2y2   :     0.000700
      dxy     :     0.001250

  2 P s       :     4.795257  s :     4.795257
      pz      :     2.883240  p :     8.759513
      px      :     2.945148
      py      :     2.931125
      dz2     :     0.100863  d :     0.679181
      dxz     :     0.154725
      dyz     :     0.137562
      dx2y2   :     0.139514
      dxy     :     0.146517

  3 O s       :     3.658910  s :     3.658910
      pz      :     1.675211  p :     4.989769
      px      :     1.753582
      py      :     1.560976
      dz2     :     0.001049  d :     0.007668
      dxz     :     0.000489
      dyz     :     0.002807
      dx2y2   :     0.001984
      dxy     :     0.001339

  4 O s       :     3.776856  s :     3.776856
      pz      :     1.614772  p :     4.633268
      px      :     1.429446
      py      :     1.589050
      dz2     :     0.001789  d :     0.012831
      dxz     :     0.002947
      dyz     :     0.001308
      dx2y2   :     0.003238
      dxy     :     0.003550

  5 F s       :     3.860877  s :     3.860877
      pz      :     1.700413  p :     5.348125
      px      :     1.761071
      py      :     1.886641
      dz2     :     0.001011  d :     0.004529
      dxz     :     0.001857
      dyz     :     0.000653
      dx2y2   :     0.000548
      dxy     :     0.000460



                     *******************************
                     * LOEWDIN POPULATION ANALYSIS *
                     *******************************

----------------------
LOEWDIN ATOMIC CHARGES
----------------------
   0 Li:    0.516889
   1 F :   -0.368338
   2 P :    1.380612
   3 O :   -0.522856
   4 O :   -0.640445
   5 F :   -0.365862

-------------------------------
LOEWDIN REDUCED ORBITAL CHARGES
-------------------------------
  0 Lis       :     2.022694  s :     2.022694
      pz      :     0.105121  p :     0.283327
      px      :     0.061554
      py      :     0.116651
      dz2     :     0.030608  d :     0.177091
      dxz     :     0.027224
      dyz     :     0.060668
      dx2y2   :     0.027529
      dxy     :     0.031062

  1 F s       :     3.818744  s :     3.818744
      pz      :     1.862777  p :     5.543891
      px      :     1.850544
      py      :     1.830570
      dz2     :     0.000624  d :     0.005702
      dxz     :     0.001234
      dyz     :     0.001380
      dx2y2   :     0.000809
      dxy     :     0.001653

  2 P s       :     4.608903  s :     4.608903
      pz      :     2.691713  p :     8.144159
      px      :     2.722478
      py      :     2.729968
      dz2     :     0.118943  d :     0.866327
      dxz     :     0.204823
      dyz     :     0.182293
      dx2y2   :     0.173311
      dxy     :     0.186956

  3 O s       :     3.499402  s :     3.499402
      pz      :     1.673711  p :     5.011978
      px      :     1.746653
      py      :     1.591614
      dz2     :     0.001422  d :     0.011476
      dxz     :     0.000679
      dyz     :     0.004521
      dx2y2   :     0.003131
      dxy     :     0.001724

  4 O s       :     3.672408  s :     3.672408
      pz      :     1.685422  p :     4.950013
      px      :     1.591518
      py      :     1.673073
      dz2     :     0.002380  d :     0.018024
      dxz     :     0.004140
      dyz     :     0.001761
      dx2y2   :     0.004099
      dxy     :     0.005644

  5 F s       :     3.818475  s :     3.818475
      pz      :     1.787205  p :     5.541657
      px      :     1.832249
      py      :     1.922203
      dz2     :     0.001198  d :     0.005729
      dxz     :     0.002522
      dyz     :     0.000750
      dx2y2   :     0.000697
      dxy     :     0.000562



                      *****************************
                      * MAYER POPULATION ANALYSIS *
                      *****************************

  NA   - Mulliken gross atomic population
  ZA   - Total nuclear charge
  QA   - Mulliken gross atomic charge
  VA   - Mayer's total valence
  BVA  - Mayer's bonded valence
  FA   - Mayer's free valence

  ATOM       NA         ZA         QA         VA         BVA        FA
  0 Li     2.2594     3.0000     0.7406     0.5589     0.5589     0.0000
  1 F      9.2138     9.0000    -0.2138     0.9731     0.9731     0.0000
  2 P     14.2340    15.0000     0.7660     5.6170     5.6170     0.0000
  3 O      8.6563     8.0000    -0.6563     2.0354     2.0354     0.0000
  4 O      8.4230     8.0000    -0.4230     1.9687     1.9687    -0.0000
  5 F      9.2135     9.0000    -0.2135     0.9655     0.9655    -0.0000

  Mayer bond orders larger than 0.100000
B(  0-Li,  3-O ) :   0.5197 B(  1-F ,  2-P ) :   1.0131 B(  2-P ,  3-O ) :   1.4917 
B(  2-P ,  4-O ) :   2.0671 B(  2-P ,  5-F ) :   1.0099 

-------
TIMINGS
-------

Total SCF time: 0 days 0 hours 0 min 2 sec 

Total time                  ....       2.110 sec
Sum of individual times     ....       2.093 sec  ( 99.2%)

SCF preparation             ....       0.730 sec  ( 34.6%)
Fock matrix formation       ....       1.210 sec  ( 57.3%)
  Startup                   ....       0.008 sec  (  0.6% of F)
  Split-RI-J                ....       0.103 sec  (  8.5% of F)
  Chain of spheres X        ....       0.864 sec  ( 71.4% of F)
  XC integration            ....       0.206 sec  ( 17.1% of F)
    XC Preparation          ....       0.000 sec  (  0.0% of XC)
    Basis function eval.    ....       0.047 sec  ( 22.9% of XC)
    Density eval.           ....       0.034 sec  ( 16.3% of XC)
    XC-Functional eval.     ....       0.010 sec  (  5.0% of XC)
    XC-Potential eval.      ....       0.048 sec  ( 23.3% of XC)
Diagonalization             ....       0.000 sec  (  0.0%)
Density matrix formation    ....       0.017 sec  (  0.8%)
Total Energy calculation    ....       0.016 sec  (  0.8%)
Population analysis         ....       0.008 sec  (  0.4%)
Orbital Transformation      ....       0.013 sec  (  0.6%)
Orbital Orthonormalization  ....       0.000 sec  (  0.0%)
DIIS solution               ....       0.065 sec  (  3.1%)
SOSCF solution              ....       0.034 sec  (  1.6%)
Finished LeanSCF after   2.1 sec

Maximum memory used throughout the entire LEANSCF-calculation: 13.0 MB
[ga00:4112097] 27 more processes have sent help message help-mpi-btl-openib.txt / error in device init
[ga00:4112097] Set MCA parameter "orte_base_help_aggregate" to 0 to see all help / error messages


-------------------------------------------------------------------------------
                          DFT DISPERSION CORRECTION                            
                                                                               
                              DFTD3 V3.1  Rev 1                                
                          USING Becke-Johnson damping                          
-------------------------------------------------------------------------------
The B3LYP functional is recognized
Active option DFTDOPT                   ...         4   

molecular C6(AA) [au] = 1037.066927 


            DFT-D V3
 parameters
 s6 scaling factor         :     1.0000 
 a1 scaling factor         :     0.3981 
 s8 scaling factor         :     1.9889 
 a2 scaling factor         :     4.4211 
 ad hoc parameters k1-k3   :    16.0000     1.3333    -4.0000 

 Edisp/kcal,au: -5.004444532957  -0.007975089152 
 E6   /kcal   :  -2.017696939 
 E8   /kcal   :  -2.986747594 
 % E8         :  59.681900244 

-------------------------   ----------------
Dispersion correction           -0.007975089
-------------------------   ----------------


-------------------------   --------------------
FINAL SINGLE POINT ENERGY      -699.147623159176
-------------------------   --------------------

--------------------------------------------------------------------------
WARNING: There was an error initializing an OpenFabrics device.

  Local host:   ga00
  Local device: mlx5_0
--------------------------------------------------------------------------


           ************************************************************
           *        Program running with 28 parallel MPI-processes    *
           *              working on a common directory               *
           ************************************************************
------------------------------------------------------------------------------
                         ORCA SCF GRADIENT CALCULATION
------------------------------------------------------------------------------

Nuc. rep. gradient        (SHARK) ... done (  0.0 sec)
HCore & Overlap gradient  (SHARK) ... done (  0.0 sec)
Split-RIJ-J gradient      (SHARK) ... done (  0.1 sec)
COSX-gradient                     ... done (  0.5 sec)
XC gradient                       ... done (  0.1 sec)
Dispersion correction             ... done (  0.1 sec)

-------------------
DISPERSION GRADIENT
-------------------

   1   Li  :   -0.000111457   -0.000441295   -0.000332600
   2   F   :    0.000112618    0.000163658   -0.000042459
   3   P   :    0.000052181    0.000202991    0.000158692
   4   O   :   -0.000009428   -0.000125927   -0.000079071
   5   O   :   -0.000158388    0.000184880    0.000139119
   6   F   :    0.000114474    0.000015693    0.000156319

Difference to translation invariance:
           :    0.0000000000   -0.0000000000    0.0000000000

Difference to rotation invariance:
           :    0.0000000000    0.0000000000    0.0000000000

Norm of the Dispersion gradient    ...    0.0007528443
RMS gradient                       ...    0.0001774471
MAX gradient                       ...    0.0004412952

------------------
CARTESIAN GRADIENT
------------------

   1   Li  :   -0.003683143   -0.008294450   -0.008375777
   2   F   :   -0.011429861   -0.006963720    0.012164889
   3   P   :    0.017026483   -0.024672484   -0.020498481
   4   O   :    0.003267227    0.031915055    0.024961851
   5   O   :    0.006856727    0.001008185    0.001189242
   6   F   :   -0.012037434    0.007007415   -0.009441724

Difference to translation invariance:
           :   -0.0000000000   -0.0000000000    0.0000000000

Difference to rotation invariance:
           :    0.0002792343   -0.0008505587    0.0004098624

Norm of the Cartesian gradient     ...    0.0615092823
RMS gradient                       ...    0.0144978769
MAX gradient                       ...    0.0319150545

-------
TIMINGS
-------

Total SCF gradient time     ....        0.723 sec

Densities                   ....       0.001 sec  (  0.1%)
One electron gradient       ....       0.011 sec  (  1.5%)
RI-J Coulomb gradient       ....       0.082 sec  ( 11.3%)
COSX gradient               ....       0.497 sec  ( 68.7%)
XC gradient                 ....       0.067 sec  (  9.2%)

Maximum memory used throughout the entire SCFGRAD-calculation: 28.1 MB
[ga00:4112234] 27 more processes have sent help message help-mpi-btl-openib.txt / error in device init
[ga00:4112234] Set MCA parameter "orte_base_help_aggregate" to 0 to see all help / error messages
------------------------------------------------------------------------------
                         ORCA GEOMETRY RELAXATION STEP
------------------------------------------------------------------------------

Reading the OPT-File                    .... done
Getting information on internals        .... done
Copying old internal coords+grads       .... done
Making the new internal coordinates     .... (2022 redundants) done
Validating the new internal coordinates .... (2022 redundants) done
Calculating the B-matrix                .... done
Calculating the G,G- and P matrices     .... done
Transforming gradient to internals      .... done
Projecting the internal gradient        .... done
Number of atoms                         ....   6
Number of internal coordinates          ....  15
Current Energy                          ....  -699.147623159 Eh
Current gradient norm                   ....     0.061509282 Eh/bohr
Maximum allowed component of the step   ....  0.300
Current trust radius                    ....  0.300
Evaluating the initial hessian          ....  (Almloef) done
Projecting the Hessian                  .... done
Forming the augmented Hessian           .... done
Diagonalizing the augmented Hessian     .... done
Last element of RFO vector              ....  0.998786599
Lowest eigenvalues of augmented Hessian:
 -0.001975310  0.028717523  0.305389855  0.378785374  0.597538976
Length of the computed step             ....  0.049307458
The final length of the internal step   ....  0.049307458
Converting the step to Cartesian space:
 Initial RMS(Int)=    0.0127311309
Transforming coordinates:
 Iter   0:  RMS(Cart)=    0.0113325909 RMS(Int)=    0.0127291513
done
Storing new coordinates                 .... done

                                .--------------------.
          ----------------------|Geometry convergence|-------------------------
          Item                value                   Tolerance       Converged
          ---------------------------------------------------------------------
          RMS gradient        0.0111215031            0.0001000000      NO
          MAX gradient        0.0287659709            0.0003000000      NO
          RMS step            0.0127311309            0.0020000000      NO
          MAX step            0.0222890919            0.0040000000      NO
          ........................................................
          Max(Bonds)      0.0118      Max(Angles)    0.92
          Max(Dihed)        0.57      Max(Improp)    0.00
          ---------------------------------------------------------------------

The optimization has not yet converged - more geometry cycles are needed


    ---------------------------------------------------------------------------
                         Redundant Internal Coordinates
                            (Angstroem and degrees)

        Definition                    Value    dE/dq     Step     New-Value
    ----------------------------------------------------------------------------
     1. B(P   2,F   1)                1.5746 -0.017289  0.0103    1.5849   
     2. B(O   3,P   2)                1.4929 -0.028766  0.0118    1.5047   
     3. B(O   3,Li  0)                1.7262  0.012336 -0.0082    1.7180   
     4. B(O   4,P   2)                1.4687 -0.004670  0.0018    1.4705   
     5. B(F   5,P   2)                1.5739 -0.016032  0.0095    1.5834   
     6. A(F   1,P   2,O   3)          106.75  0.008334   -0.85    105.89   
     7. A(F   1,P   2,O   4)          110.39 -0.008146    0.72    111.11   
     8. A(O   3,P   2,O   4)          122.37  0.004363   -0.36    122.01   
     9. A(F   1,P   2,F   5)           97.58 -0.003478    0.27     97.85   
    10. A(O   3,P   2,F   5)          106.53  0.006791   -0.62    105.92   
    11. A(O   4,P   2,F   5)          110.32 -0.009024    0.92    111.25   
    12. A(Li  0,O   3,P   2)          161.11  0.000221   -0.02    161.09   
    13. D(Li  0,O   3,P   2,O   4)     33.90  0.001196   -0.57     33.33   
    14. D(Li  0,O   3,P   2,F   5)    162.01 -0.001220   -0.17    161.84   
    15. D(Li  0,O   3,P   2,F   1)    -94.52  0.000646   -0.42    -94.94   
    ----------------------------------------------------------------------------

Geometry step timings:
Preparation and reading OPT file:      0.000 s (14.411 %)
Internal coordinates            :      0.000 s ( 3.515 %)
B/P matrices and projection     :      0.000 s (21.090 %)
Hessian update/contruction      :      0.000 s (12.302 %)
Making the step                 :      0.000 s (12.478 %)
Converting the step to Cartesian:      0.000 s ( 5.272 %)
Storing new data                :      0.000 s ( 2.636 %)
Checking convergence            :      0.000 s ( 0.176 %)
Final printing                  :      0.000 s (26.714 %)
Total time                      :      0.001 s
--------------------------------------------------------------------------
WARNING: There was an error initializing an OpenFabrics device.

  Local host:   ga00
  Local device: mlx5_0
--------------------------------------------------------------------------
[ga00:4112364] 27 more processes have sent help message help-mpi-btl-openib.txt / error in device init
[ga00:4112364] Set MCA parameter "orte_base_help_aggregate" to 0 to see all help / error messages

Time for energy+gradient        :      6.841 s
Time for complete geometry iter :      7.833 s

         *************************************************************
         *                GEOMETRY OPTIMIZATION CYCLE   2            *
         *************************************************************
---------------------------------
CARTESIAN COORDINATES (ANGSTROEM)
---------------------------------
  Li    -3.054187    2.413905   -1.724672
  F     -1.469935    5.849265   -0.643112
  P     -2.391737    4.864574    0.189040
  O     -2.481453    3.600187   -0.621843
  O     -3.589115    5.556074    0.689390
  F     -1.374579    4.556370    1.362760

----------------------------
CARTESIAN COORDINATES (A.U.)
----------------------------
  NO LB      ZA    FRAG     MASS         X           Y           Z
   0 Li    3.0000    0     6.941   -5.771576    4.561619   -3.259157
   1 F     9.0000    0    18.998   -2.777774   11.053508   -1.215305
   2 P    15.0000    0    30.974   -4.519727    9.192713    0.357234
   3 O     8.0000    0    15.999   -4.689266    6.803368   -1.175112
   4 O     8.0000    0    15.999   -6.782444   10.499458    1.302758
   5 F     9.0000    0    18.998   -2.597577    8.610292    2.575242

--------------------------------
INTERNAL COORDINATES (ANGSTROEM)
--------------------------------
 Li     0   0   0     0.000000000000     0.00000000     0.00000000
 F      1   0   0     3.934631185621     0.00000000     0.00000000
 P      2   1   0     1.584869401298    50.77801433     0.00000000
 O      3   2   1     1.504743508332   105.89021889    10.48721013
 O      3   2   1     1.470454393753   111.10617385   236.01828397
 F      3   2   1     1.583419732645    97.84607719   119.57489822

---------------------------
INTERNAL COORDINATES (A.U.)
---------------------------
 Li     0   0   0     0.000000000000     0.00000000     0.00000000
 F      1   0   0     7.435375378810     0.00000000     0.00000000
 P      2   1   0     2.994969126485    50.77801433     0.00000000
 O      3   2   1     2.843553132544   105.89021889    10.48721013
 O      3   2   1     2.778756096615   111.10617385   236.01828397
 F      3   2   1     2.992229649745    97.84607719   119.57489822

--------------------------------------------------------------------------
WARNING: There was an error initializing an OpenFabrics device.

  Local host:   ga00
  Local device: mlx5_0
--------------------------------------------------------------------------


           ************************************************************
           *        Program running with 28 parallel MPI-processes    *
           *              working on a common directory               *
           ************************************************************
------------------------------------------------------------------------------
                   ___                                                        
                  /   \      - P O W E R E D   B Y -                         
                 /     \                                                     
                 |  |  |   _    _      __       _____    __    __             
                 |  |  |  | |  | |    /  \     |  _  \  |  |  /  |          
                  \  \/   | |  | |   /    \    | | | |  |  | /  /          
                 / \  \   | |__| |  /  /\  \   | |_| |  |  |/  /          
                |  |  |   |  __  | /  /__\  \  |    /   |      \           
                |  |  |   | |  | | |   __   |  |    \   |  |\   \          
                \     /   | |  | | |  |  |  |  | |\  \  |  | \   \       
                 \___/    |_|  |_| |__|  |__|  |_| \__\ |__|  \__/        
                                                                              
                      - O R C A' S   B I G   F R I E N D -                    
                                      &                                       
                       - I N T E G R A L  F E E D E R -                       
                                                                              
 v1 FN, 2020, v2 2021, v3 2022-2024                                           
------------------------------------------------------------------------------


----------------------
SHARK INTEGRAL PACKAGE
----------------------

Number of atoms                             ...      6
Number of basis functions                   ...    140
Number of shells                            ...     64
Maximum angular momentum                    ...      2
Integral batch strategy                     ... SHARK/LIBINT Hybrid
RI-J (if used) integral strategy            ... SPLIT-RIJ (Revised 2003 algorithm where possible)
Printlevel                                  ...      1
Contraction scheme used                     ... SEGMENTED contraction
Prescreening option                         ... SCHWARTZ
   Thresh                                   ... 2.500e-11
   Tcut                                     ... 2.500e-12
   Tpresel                                  ... 2.500e-12 
Coulomb Range Separation                    ... NOT USED
Exchange Range Separation                   ... NOT USED
Multipole approximations                    ... NOT USED
Finite Nucleus Model                        ... NOT USED
CABS basis                                  ... NOT available
Auxiliary Coulomb fitting basis             ... AVAILABLE
   # of basis functions in Aux-J            ...    296
   # of shells in Aux-J                     ...     92
   Maximum angular momentum in Aux-J        ...      4
Auxiliary J/K fitting basis                 ... NOT available
Auxiliary Correlation fitting basis         ... NOT available
Auxiliary 'external' fitting basis          ... NOT available

Checking pre-screening integrals            ... done (  0.0 sec) Dimension = 64
Check shell pair data                       ... done (  0.0 sec)
Shell pair information
Shell pair cut-off parameter TPreSel        ...   2.5e-12
Total number of shell pairs                 ...      2080
Shell pairs after pre-screening             ...      2006
Total number of primitive shell pairs       ...      7390
Primitive shell pairs kept                  ...      5279
          la=0 lb=0:    492 shell pairs
          la=1 lb=0:    802 shell pairs
          la=1 lb=1:    345 shell pairs
          la=2 lb=0:    190 shell pairs
          la=2 lb=1:    156 shell pairs
          la=2 lb=2:     21 shell pairs

Calculating one electron integrals          ... done (  0.0 sec)
Calculating RI/J V-Matrix + Cholesky decomp.... done (  0.0 sec)
Calculating Nuclear repulsion               ... done (  0.0 sec) ENN=    292.833138011282 Eh

Diagonalization of the overlap matrix:
Smallest eigenvalue                        ... 4.609e-04
Time for diagonalization                   ...    0.002 sec
Threshold for overlap eigenvalues          ... 1.000e-07
Number of eigenvalues below threshold      ... 0
Time for construction of square roots      ...    0.001 sec
Total time needed                          ...    0.004 sec

-------------------
DFT GRID GENERATION
-------------------

General Integration Accuracy     IntAcc      ... 4.388
Radial Grid Type                 RadialGrid  ... OptM3 with GC (2021)
Angular Grid (max. ang.)         AngularGrid ... 4 (Lebedev-302)
Angular grid pruning method      GridPruning ... 4 (adaptive)
Weight generation scheme         WeightScheme... mBecke (2022)
Basis function cutoff            BFCut       ... 1.0000e-11
Integration weight cutoff        WCut        ... 1.0000e-14
Partially contracted basis set               ... off
Rotationally invariant grid construction     ... off
Angular grids for H and He will be reduced by one unit
Diffuse basis detected: some atoms will have their outermost
                        angular grid increased by 1.

Total number of grid points                  ...    39685
Total number of batches                      ...      623
Average number of points per batch           ...       63
Average number of grid points per atom       ...     6614

--------------------
COSX GRID GENERATION
--------------------

GRIDX 1
-------
General Integration Accuracy     IntAcc      ... 3.816
Radial Grid Type                 RadialGrid  ... OptM3 with GC (2021)
Angular Grid (max. ang.)         AngularGrid ... 1 (Lebedev-50)
Angular grid pruning method      GridPruning ... 4 (adaptive)
Weight generation scheme         WeightScheme... mBecke (2022)
Basis function cutoff            BFCut       ... 1.0000e-11
Integration weight cutoff        WCut        ... 1.0000e-14
Partially contracted basis set               ... on
Rotationally invariant grid construction     ... off
Angular grids for H and He will be reduced by one unit
Diffuse basis detected: some atoms will have their outermost
                        angular grid increased by 1.

Total number of grid points                  ...     6247
Total number of batches                      ...       53
Average number of points per batch           ...      117
Average number of grid points per atom       ...     1041
UseSFitting                                  ... on

GRIDX 2
-------
General Integration Accuracy     IntAcc      ... 4.020
Radial Grid Type                 RadialGrid  ... OptM3 with GC (2021)
Angular Grid (max. ang.)         AngularGrid ... 2 (Lebedev-110)
Angular grid pruning method      GridPruning ... 4 (adaptive)
Weight generation scheme         WeightScheme... mBecke (2022)
Basis function cutoff            BFCut       ... 1.0000e-11
Integration weight cutoff        WCut        ... 1.0000e-14
Partially contracted basis set               ... on
Rotationally invariant grid construction     ... off
Angular grids for H and He will be reduced by one unit
Diffuse basis detected: some atoms will have their outermost
                        angular grid increased by 1.

Total number of grid points                  ...    13406
Total number of batches                      ...      108
Average number of points per batch           ...      124
Average number of grid points per atom       ...     2234
UseSFitting                                  ... on

GRIDX 3
-------
General Integration Accuracy     IntAcc      ... 4.338
Radial Grid Type                 RadialGrid  ... OptM3 with GC (2021)
Angular Grid (max. ang.)         AngularGrid ... 3 (Lebedev-194)
Angular grid pruning method      GridPruning ... 4 (adaptive)
Weight generation scheme         WeightScheme... mBecke (2022)
Basis function cutoff            BFCut       ... 1.0000e-11
Integration weight cutoff        WCut        ... 1.0000e-14
Partially contracted basis set               ... on
Rotationally invariant grid construction     ... off
Angular grids for H and He will be reduced by one unit
Diffuse basis detected: some atoms will have their outermost
                        angular grid increased by 1.

Total number of grid points                  ...    29753
Total number of batches                      ...      234
Average number of points per batch           ...      127
Average number of grid points per atom       ...     4959
UseSFitting                                  ... on
Initializing property integral containers    ... done (  0.0 sec)

SHARK setup successfully completed in   0.4 seconds

Maximum memory used throughout the entire STARTUP-calculation: 13.4 MB
[ga00:4112490] 27 more processes have sent help message help-mpi-btl-openib.txt / error in device init
[ga00:4112490] Set MCA parameter "orte_base_help_aggregate" to 0 to see all help / error messages
--------------------------------------------------------------------------
WARNING: There was an error initializing an OpenFabrics device.

  Local host:   ga00
  Local device: mlx5_0
--------------------------------------------------------------------------


           ************************************************************
           *        Program running with 28 parallel MPI-processes    *
           *              working on a common directory               *
           ************************************************************
Occupation numbers will be reassigned to an Aufbau configuration
             **** ENERGY FILE WAS UPDATED (input.en.tmp) ****
Finished Guess after   0.7 sec
Maximum memory used throughout the entire GUESS-calculation: 8.3 MB
[ga00:4112612] 27 more processes have sent help message help-mpi-btl-openib.txt / error in device init
[ga00:4112612] Set MCA parameter "orte_base_help_aggregate" to 0 to see all help / error messages
--------------------------------------------------------------------------
WARNING: There was an error initializing an OpenFabrics device.

  Local host:   ga00
  Local device: mlx5_0
--------------------------------------------------------------------------


           ************************************************************
           *        Program running with 28 parallel MPI-processes    *
           *              working on a common directory               *
           ************************************************************
----------------------------------------D-I-I-S--------------------------------------------
Iteration    Energy (Eh)           Delta-E    RMSDP     MaxDP     DIISErr   Damp  Time(sec)
-------------------------------------------------------------------------------------------
               ***  Starting incremental Fock matrix formation  ***
    1    -699.1409121122346733     0.00e+00  1.36e-04  3.22e-03  6.00e-03  0.700   0.1
                              *** Initializing SOSCF ***
---------------------------------------S-O-S-C-F--------------------------------------
Iteration    Energy (Eh)           Delta-E    RMSDP     MaxDP     MaxGrad    Time(sec)
--------------------------------------------------------------------------------------
    2    -699.1410080248026588    -9.59e-05  4.01e-04  1.03e-02  3.06e-03     0.1
               *** Restarting incremental Fock matrix formation ***
    3    -699.1412326090373881    -2.25e-04  1.29e-04  3.05e-03  7.69e-04     0.1
    4    -699.1412086177517722     2.40e-05  8.44e-05  1.44e-03  1.57e-03     0.1
    5    -699.1412482188582089    -3.96e-05  2.23e-05  4.07e-04  1.71e-04     0.1
    6    -699.1412479245454961     2.94e-07  1.16e-05  2.38e-04  2.43e-04     0.1
    7    -699.1412486903118406    -7.66e-07  6.12e-06  2.18e-04  3.70e-05     0.1
    8    -699.1412486755555165     1.48e-08  3.07e-06  1.01e-04  4.17e-05     0.1
    9    -699.1412487178490665    -4.23e-08  1.06e-06  3.94e-05  8.70e-06     0.1
   10    -699.1412487216439331    -3.79e-09  6.40e-07  2.61e-05  1.23e-05     0.1
                 **** Energy Check signals convergence ****

               *****************************************************
               *                     SUCCESS                       *
               *           SCF CONVERGED AFTER  10 CYCLES          *
               *****************************************************

Recomputing exchange energy using gridx3       ... done (    0.115 sec)
Old exchange energy                            :    -12.259524797 Eh
New exchange energy                            :    -12.259493011 Eh
Exchange energy change after final integration :      0.000031787 Eh
Total energy after final integration           :   -699.141216935 Eh
             **** ENERGY FILE WAS UPDATED (input.en.tmp) ****

----------------
TOTAL SCF ENERGY
----------------

Total Energy       :       -699.14121693513141 Eh          -19024.59970 eV

Components:
Nuclear Repulsion  :        292.83313801128207 Eh            7968.39479 eV
Electronic Energy  :       -991.97438673292595 Eh          -26992.99536 eV
One Electron Energy:      -1552.83557632780003 Eh          -42254.80422 eV
Two Electron Energy:        560.86118959487408 Eh           15261.80886 eV

Virial components:
Potential Energy   :      -1396.99278648169866 Eh          -38014.10632 eV
Kinetic Energy     :        697.85156954656713 Eh           18989.50662 eV
Virial Ratio       :          2.00184802534642

DFT components:
N(Alpha)           :       26.000064050746 electrons
N(Beta)            :       26.000064050746 electrons
N(Total)           :       52.000128101491 electrons
E(X)               :      -48.799936318449 Eh       
E(C)               :       -2.335684685070 Eh       
E(XC)              :      -51.135621003519 Eh       

---------------
SCF CONVERGENCE
---------------

  Last Energy change         ...    3.7949e-09  Tolerance :   1.0000e-08
  Last MAX-Density change    ...    2.6082e-05  Tolerance :   1.0000e-07
  Last RMS-Density change    ...    6.4010e-07  Tolerance :   5.0000e-09
  Last DIIS Error            ...    3.0594e-03  Tolerance :   5.0000e-07
  Last Orbital Gradient      ...    1.2256e-05  Tolerance :   1.0000e-05
  Last Orbital Rotation      ...    7.4482e-06  Tolerance :   1.0000e-05


Total SCF time: 0 days 0 hours 0 min 1 sec 
Finished LeanSCF after   1.9 sec

Maximum memory used throughout the entire LEANSCF-calculation: 13.2 MB
[ga00:4112734] 27 more processes have sent help message help-mpi-btl-openib.txt / error in device init
[ga00:4112734] Set MCA parameter "orte_base_help_aggregate" to 0 to see all help / error messages


-------------------------------------------------------------------------------
                          DFT DISPERSION CORRECTION                            
                                                                               
                              DFTD3 V3.1  Rev 1                                
                          USING Becke-Johnson damping                          
-------------------------------------------------------------------------------
-------------------------   ----------------
Dispersion correction           -0.007966901
-------------------------   ----------------


-------------------------   --------------------
FINAL SINGLE POINT ENERGY      -699.149183835892
-------------------------   --------------------

--------------------------------------------------------------------------
WARNING: There was an error initializing an OpenFabrics device.

  Local host:   ga00
  Local device: mlx5_0
--------------------------------------------------------------------------


           ************************************************************
           *        Program running with 28 parallel MPI-processes    *
           *              working on a common directory               *
           ************************************************************
------------------------------------------------------------------------------
                         ORCA SCF GRADIENT CALCULATION
------------------------------------------------------------------------------

Nuc. rep. gradient        (SHARK) ... done (  0.0 sec)
[...]
   9   2.0000      -2.056944       -55.9723 
  10   2.0000      -1.227316       -33.3970 
  11   2.0000      -1.189888       -32.3785 
  12   2.0000      -1.005295       -27.3555 
  13   2.0000      -0.953049       -25.9338 
  14   2.0000      -0.602204       -16.3868 
  15   2.0000      -0.523970       -14.2579 
  16   2.0000      -0.496083       -13.4991 
  17   2.0000      -0.467899       -12.7322 
  18   2.0000      -0.436547       -11.8791 
  19   2.0000      -0.432974       -11.7818 
  20   2.0000      -0.413410       -11.2495 
  21   2.0000      -0.380065       -10.3421 
  22   2.0000      -0.349196        -9.5021 
  23   2.0000      -0.342676        -9.3247 
  24   2.0000      -0.293032        -7.9738 
  25   2.0000      -0.283453        -7.7132 
  26   0.0000      -0.075347        -2.0503 
  27   0.0000      -0.010738        -0.2922 
  28   0.0000      -0.009728        -0.2647 
  29   0.0000      -0.001706        -0.0464 
  30   0.0000       0.007220         0.1965 
  31   0.0000       0.019072         0.5190 
  32   0.0000       0.019902         0.5416 
  33   0.0000       0.036319         0.9883 
  34   0.0000       0.056210         1.5296 
  35   0.0000       0.073878         2.0103 
  36   0.0000       0.074298         2.0218 
*Only the first 10 virtual orbitals were printed.

                    ********************************
                    * MULLIKEN POPULATION ANALYSIS *
                    ********************************

-----------------------
MULLIKEN ATOMIC CHARGES
-----------------------
   0 Li:    0.712866
   1 F :   -0.214908
   2 P :    0.748924
   3 O :   -0.647338
   4 O :   -0.388134
   5 F :   -0.211410
Sum of atomic charges:    0.0000000

--------------------------------
MULLIKEN REDUCED ORBITAL CHARGES
--------------------------------
  0 Lis       :     2.068264  s :     2.068264
      pz      :     0.067939  p :     0.196312
      px      :     0.045142
      py      :     0.083230
      dz2     :     0.001667  d :     0.022558
      dxz     :     0.003329
      dyz     :     0.009290
      dx2y2   :     0.003349
      dxy     :     0.004922

  1 F s       :     3.858622  s :     3.858622
      pz      :     1.808926  p :     5.352061
      px      :     1.777181
      py      :     1.765954
      dz2     :     0.000515  d :     0.004225
      dxz     :     0.000922
      dyz     :     0.000986
      dx2y2   :     0.000632
      dxy     :     0.001170

  2 P s       :     4.859428  s :     4.859428
      pz      :     2.877927  p :     8.744628
      px      :     2.954025
      py      :     2.912676
      dz2     :     0.094445  d :     0.647020
      dxz     :     0.149012
      dyz     :     0.131703
      dx2y2   :     0.132895
      dxy     :     0.138965

  3 O s       :     3.647365  s :     3.647365
      pz      :     1.672432  p :     4.993079
      px      :     1.761445
      py      :     1.559202
      dz2     :     0.000922  d :     0.006894
      dxz     :     0.000476
      dyz     :     0.002711
      dx2y2   :     0.001717
      dxy     :     0.001068

  4 O s       :     3.762020  s :     3.762020
      pz      :     1.610829  p :     4.613128
      px      :     1.412897
      py      :     1.589402
      dz2     :     0.001811  d :     0.012986
      dxz     :     0.003029
      dyz     :     0.001284
      dx2y2   :     0.003303
      dxy     :     0.003559

  5 F s       :     3.858938  s :     3.858938
      pz      :     1.711349  p :     5.348201
      px      :     1.754292
      py      :     1.882559
      dz2     :     0.000864  d :     0.004271
      dxz     :     0.001728
      dyz     :     0.000641
      dx2y2   :     0.000539
      dxy     :     0.000499



                     *******************************
                     * LOEWDIN POPULATION ANALYSIS *
                     *******************************

----------------------
LOEWDIN ATOMIC CHARGES
----------------------
   0 Li:    0.471371
   1 F :   -0.378818
   2 P :    1.419534
   3 O :   -0.508924
   4 O :   -0.627525
   5 F :   -0.375639

-------------------------------
LOEWDIN REDUCED ORBITAL CHARGES
-------------------------------
  0 Lis       :     2.019059  s :     2.019059
      pz      :     0.110409  p :     0.315967
      px      :     0.067303
      py      :     0.138255
      dz2     :     0.032525  d :     0.193602
      dxz     :     0.025346
      dyz     :     0.065498
      dx2y2   :     0.034640
      dxy     :     0.035595

  1 F s       :     3.829448  s :     3.829448
      pz      :     1.859750  p :     5.544029
      px      :     1.844178
      py      :     1.840100
      dz2     :     0.000575  d :     0.005341
      dxz     :     0.001235
      dyz     :     0.001255
      dx2y2   :     0.000732
      dxy     :     0.001544

  2 P s       :     4.623940  s :     4.623940
      pz      :     2.690315  p :     8.132451
      px      :     2.719216
      py      :     2.722919
      dz2     :     0.110617  d :     0.824074
      dxz     :     0.196685
      dyz     :     0.174730
      dx2y2   :     0.164085
      dxy     :     0.177958

  3 O s       :     3.495611  s :     3.495611
      pz      :     1.665873  p :     5.002700
      px      :     1.746446
      py      :     1.590380
      dz2     :     0.001302  d :     0.010613
      dxz     :     0.000678
      dyz     :     0.004430
      dx2y2   :     0.002738
      dxy     :     0.001466

  4 O s       :     3.676218  s :     3.676218
      pz      :     1.682590  p :     4.933081
      px      :     1.577984
      py      :     1.672507
      dz2     :     0.002401  d :     0.018226
      dxz     :     0.004262
      dyz     :     0.001724
      dx2y2   :     0.004215
      dxy     :     0.005624

  5 F s       :     3.828737  s :     3.828737
      pz      :     1.797128  p :     5.541507
      px      :     1.826588
      py      :     1.917791
      dz2     :     0.001020  d :     0.005395
      dxz     :     0.002336
      dyz     :     0.000748
      dx2y2   :     0.000674
      dxy     :     0.000618



                      *****************************
                      * MAYER POPULATION ANALYSIS *
                      *****************************

  NA   - Mulliken gross atomic population
  ZA   - Total nuclear charge
  QA   - Mulliken gross atomic charge
  VA   - Mayer's total valence
  BVA  - Mayer's bonded valence
  FA   - Mayer's free valence

  ATOM       NA         ZA         QA         VA         BVA        FA
  0 Li     2.2871     3.0000     0.7129     0.6117     0.6117     0.0000
  1 F      9.2149     9.0000    -0.2149     0.9604     0.9604    -0.0000
  2 P     14.2511    15.0000     0.7489     5.5959     5.5959     0.0000
  3 O      8.6473     8.0000    -0.6473     2.0339     2.0339    -0.0000
  4 O      8.3881     8.0000    -0.3881     2.0012     2.0012     0.0000
  5 F      9.2114     9.0000    -0.2114     0.9593     0.9593     0.0000

  Mayer bond orders larger than 0.100000
B(  0-Li,  3-O ) :   0.5735 B(  1-F ,  2-P ) :   1.0092 B(  2-P ,  3-O ) :   1.4594 
B(  2-P ,  4-O ) :   2.0810 B(  2-P ,  5-F ) :   1.0095 

-------
TIMINGS
-------

Total SCF time: 0 days 0 hours 0 min 1 sec 

Total time                  ....       1.219 sec
Sum of individual times     ....       1.204 sec  ( 98.8%)

SCF preparation             ....       0.722 sec  ( 59.2%)
Fock matrix formation       ....       0.418 sec  ( 34.3%)
  Startup                   ....       0.003 sec  (  0.8% of F)
  Split-RI-J                ....       0.027 sec  (  6.5% of F)
  Chain of spheres X        ....       0.327 sec  ( 78.3% of F)
  XC integration            ....       0.053 sec  ( 12.8% of F)
    XC Preparation          ....       0.000 sec  (  0.0% of XC)
    Basis function eval.    ....       0.011 sec  ( 20.1% of XC)
    Density eval.           ....       0.009 sec  ( 16.2% of XC)
    XC-Functional eval.     ....       0.003 sec  (  4.9% of XC)
    XC-Potential eval.      ....       0.012 sec  ( 22.0% of XC)
Diagonalization             ....       0.000 sec  (  0.0%)
Density matrix formation    ....       0.004 sec  (  0.3%)
Total Energy calculation    ....       0.005 sec  (  0.4%)
Population analysis         ....       0.024 sec  (  2.0%)
Orbital Transformation      ....       0.006 sec  (  0.5%)
Orbital Orthonormalization  ....       0.000 sec  (  0.0%)
DIIS solution               ....       0.009 sec  (  0.7%)
SOSCF solution              ....       0.016 sec  (  1.3%)
Finished LeanSCF after   1.2 sec

Maximum memory used throughout the entire LEANSCF-calculation: 14.6 MB
[ga00:4122212] 27 more processes have sent help message help-mpi-btl-openib.txt / error in device init
[ga00:4122212] Set MCA parameter "orte_base_help_aggregate" to 0 to see all help / error messages


-------------------------------------------------------------------------------
                          DFT DISPERSION CORRECTION                            
                                                                               
                              DFTD3 V3.1  Rev 1                                
                          USING Becke-Johnson damping                          
-------------------------------------------------------------------------------
The B3LYP functional is recognized
Active option DFTDOPT                   ...         4   

molecular C6(AA) [au] = 1036.948274 


            DFT-D V3
 parameters
 s6 scaling factor         :     1.0000 
 a1 scaling factor         :     0.3981 
 s8 scaling factor         :     1.9889 
 a2 scaling factor         :     4.4211 
 ad hoc parameters k1-k3   :    16.0000     1.3333    -4.0000 

 Edisp/kcal,au: -5.008083469339  -0.007980888165 
 E6   /kcal   :  -2.016523181 
 E8   /kcal   :  -2.991560288 
 % E8         :  59.734633151 

-------------------------   ----------------
Dispersion correction           -0.007980888
-------------------------   ----------------


-------------------------   --------------------
FINAL SINGLE POINT ENERGY      -699.150542654628
-------------------------   --------------------

                                *** OPTIMIZATION RUN DONE ***

--------------------------------------------------------------------------
WARNING: There was an error initializing an OpenFabrics device.

  Local host:   ga00
  Local device: mlx5_0
--------------------------------------------------------------------------


           ************************************************************
           *        Program running with 28 parallel MPI-processes    *
           *              working on a common directory               *
           ************************************************************

------------------------------------------------------------------------------
                              ORCA PROPERTY CALCULATIONS
------------------------------------------------------------------------------

GBWName                                 ... input.gbw
Number of atoms                         ...      6
Number of basis functions               ...    140
Max core memory                         ...   5000 MB

Electric properties:
Dipole moment                           ... YES
Quadrupole moment                       ...  NO
Static polarizability (Dipole/Dipole)   ...  NO
Static polarizability (Dipole/Quad.)    ...  NO
Static polarizability (Quad./Quad.)     ...  NO
Static polarizability (Velocity)        ...  NO

Atomic electric properties:
Dipole moment                           ...  NO
Quadrupole moment                       ...  NO
Static polarizability                   ...  NO

Choice of electric origin               ... Center of mass
Position of electric origin             ...    -4.325028     8.963280     0.141797

General magnetic properties:
Magnetizability                         ...  NO

EPR properties:
g-Tensor (aka g-matrix)                 ...  NO
Zero-Field splitting spin-orbit         ...  NO
Zero-field splitting spin-spin          ...  NO
Hyperfine couplings                     ...  NO (   0 nuclei)
Quadrupole couplings                    ...  NO (   0 nuclei)
Contact density                         ...  NO (   0 nuclei)

NMR properties:
Chemical shifts                         ...  NO (   0 nuclei)
Spin-rotation constants                 ...  NO (   0 nuclei)
Spin-spin couplings                     ...  NO (   0 nuclei,    0 pairs)

Choice of magnetic origin               ... GIAO
Position of magnetic origin             ...     0.000000     0.000000     0.000000

Properties with geometric perturbations:
SCF Hessian                             ...  NO
IR spectrum                             ...  NO
VCD spectrum                            ...  NO
X-ray spectroscopy properties:
SCF XES/XAS/RIXS spectra                ...  NO


-------------
DIPOLE MOMENT
-------------

Method             : SCF
Type of density    : Electron Density
Multiplicity       :   1
Irrep              :   0
Energy             :  -699.1425617664624497 Eh
Relativity type    : 
Basis              : AO
                                X                 Y                 Z
Electronic contribution:      0.462508275      -4.348033791      -3.401657527
Nuclear contribution   :     -0.898605930       1.123917880       0.931325293
                        -----------------------------------------
Total Dipole Moment    :     -0.436097655      -3.224115911      -2.470332233
                        -----------------------------------------
Magnitude (a.u.)       :      4.085051520
Magnitude (Debye)      :     10.383375782



--------------------
Rotational spectrum 
--------------------
 
Rotational constants in cm-1:             0.149323             0.096431             0.094760 
Rotational constants in MHz :          4476.605121          2890.918967          2840.834856 

Dipole components along the rotational axes: 
x,y,z [a.u.] :     4.046858     0.556810    -0.023480 
x,y,z [Debye]:    10.286295     1.415298    -0.059682 

 

Dipole moment calculation done in   0.0 sec 

Maximum memory used throughout the entire PROP-calculation: 8.0 MB
[ga00:4122353] 27 more processes have sent help message help-mpi-btl-openib.txt / error in device init
[ga00:4122353] Set MCA parameter "orte_base_help_aggregate" to 0 to see all help / error messages
--------------------------------------------------------------------------
WARNING: There was an error initializing an OpenFabrics device.

  Local host:   ga00
  Local device: mlx5_0
--------------------------------------------------------------------------
[ga00:4122482] 27 more processes have sent help message help-mpi-btl-openib.txt / error in device init
[ga00:4122482] Set MCA parameter "orte_base_help_aggregate" to 0 to see all help / error messages

--------------------------------
SUGGESTED CITATIONS FOR THIS RUN
--------------------------------

Below you find a list of papers that are relevant to this ORCA run
We neither can nor want to force you to cite these papers, but we appreciate if you do
You receive ORCA, which is the product of decades of hard work by many enthusiastic individuals, for free
The only thing we kindly ask in return is that you cite our papers,
We deeply appreciate it, if you show your appreciation for ORCA by not just citing the generic ORCA reference.

Please note that relegating all ORCA citations to the supporting information does *not* help us.
SI sections are not indexed - citations you put there will not count into any citation statistics
But we need these citations in order to attract the funding resources that allow us to do what we are doing

Therefore, if you are a happy ORCA user, please consider citing a few of the papers listed below in the main body of your paper

In addition to the list printed below, the program has created the file input.bibtex that contains the list in bibtex format
You can import this file easily into all common literature databanks and citation aid programs


List of essential papers. We consider these as the minimum necessary citations

  1. Neese,F.
     Software update: the ORCA program system, version 5.0
     WIRES Comput. Molec. Sci., 2022 12(1)e1606
     doi.org/10.1002/wcms.1606

List of papers to cite with high priority. The work reported in these papers was absolutely
necessary for this run to complete.
Our perspective: the developers of density functionals and basis sets usually get cited in chemistry papers
Good! But without the algorithms to do something with them, the functionals or basis sets would not do anything.
Hence, in our opinion, the algorithm design and method developments papers are equally worthy of getting cited

  1. Neese,F.
     An improvement of the resolution of the identity approximation for the formation of the Coulomb matrix
     J. Comp. Chem., 2003 24(14)1740-1747
     doi.org/10.1002/jcc.10318
  2. Neese,F.; Wennmohs,F.; Hansen,A.; Becker,U.
     Efficient, approximate and parallel Hartree-Fock and hybrid DFT calculations. A 'chain-of-spheres' algorithm for the Hartree-Fock exchange
     Chem. Phys., 2009 356(1-3)98-109
     doi.org/10.1016/j.chemphys.2008.10.036
  3. Helmich-Paris,B.; de Souza,B.; Neese,F.; Izsák,R.
     An improved chain of spheres for exchange algorithm
     J. Chem. Phys., 2021 155 104109
     doi.org/doi: 10.1063/5.0058766.
  4. Neese,F.
     The SHARK Integral Generation and Digestion System
     J. Comp. Chem., 2022  1-16
     doi.org/10.1002/jcc.26942
  5. Grimme,S.; Antony,J.; Ehrlich,S.; Krieg,H.
     A consistent and accurate ab initio parametrization of density functional dispersion correction (DFT-D) for the 94 elements H-Pu
     J. Chem. Phys., 2010 132 154104
     doi.org/10.1063/1.3382344
  6. Grimme,S.; Ehrlich,S.; Goerigk,L.
     Effect of the damping function in dispersion corrected density functional theory
     J. Comput. Chem., 2011 32(7)1456-1465
     doi.org/10.1002/jcc.21759

List of suggested additional citations. These are papers that are important in the 'surrounding' of 
of this run, or papers that preceded the highly important papers. If you like your results we are grateful for a citation.

  1. Izsak,R.; Neese,F.
     An overlap fitted chain of spheres exchange method
     J. Chem. Phys., 2011 135 144105
     doi.org/10.1063/1.3646921
  2. Izsak,R.; Hansen,A.; Neese,F.
     The resolution of identity and chain of spheres approximations for the LPNO-CCSD singles Fock term
     Molec. Phys., 2012 110 2413-2417
     doi.org/10.1080/00268976.2012.687466
  3. Neese,F.
     The ORCA program system
     WIRES Comput. Molec. Sci., 2012 2(1)73-78
     doi.org/10.1002/wcms.81
  4. Izsak,R.; Neese,F.; Klopper,W.
     Robust fitting techniques in the chain of spheres approximation to the Fock exchange: The role of the complementary space
     J. Chem. Phys., 2013 139 
     doi.org/10.1063/1.4819264
  5. Neese,F.
     Software update: the ORCA program system, version 4.0
     WIRES Comput. Molec. Sci., 2018 8(1)1-6
     doi.org/10.1002/wcms.1327
  6. Neese,F.; Wennmohs,F.; Becker,U.; Riplinger,C.
     The ORCA quantum chemistry program package
     J. Chem. Phys., 2020 152 Art. No. L224108
     doi.org/10.1063/5.0004608

List of optional additional citations

  1. Neese,F.
     Approximate second-order SCF convergence for spin unrestricted wavefunctions
     Chem. Phys. Lett., 2000 325(1-3)93-98
     doi.org/10.1016/s0009-2614(00)00662-x

Timings for individual modules:

Sum of individual times          ...       97.426 sec (=   1.624 min)
Startup calculation              ...       22.501 sec (=   0.375 min)  23.1 %
SCF iterations                   ...       47.357 sec (=   0.789 min)  48.6 %
Property calculations            ...        1.077 sec (=   0.018 min)   1.1 %
SCF Gradient evaluation          ...       26.462 sec (=   0.441 min)  27.2 %
Geometry relaxation              ...        0.028 sec (=   0.000 min)   0.0 %
                             ****ORCA TERMINATED NORMALLY****
TOTAL RUN TIME: 0 days 0 hours 1 minutes 53 seconds 762 msec
