
                                 *****************
                                 * O   R   C   A *
                                 *****************

                                            #,                                       
                                            ###                                      
                                            ####                                     
                                            #####                                    
                                            ######                                   
                                           ########,                                 
                                     ,,################,,,,,                         
                               ,,#################################,,                 
                          ,,##########################################,,             
                       ,#########################################, ''#####,          
                    ,#############################################,,   '####,        
                  ,##################################################,,,,####,       
                ,###########''''           ''''###############################       
              ,#####''   ,,,,##########,,,,          '''####'''          '####       
            ,##' ,,,,###########################,,,                        '##       
           ' ,,###''''                  '''############,,,                           
         ,,##''                                '''############,,,,        ,,,,,,###''
      ,#''                                            '''#######################'''  
     '                                                          ''''####''''         
             ,#######,   #######,   ,#######,      ##                                
            ,#'     '#,  ##    ##  ,#'     '#,    #''#        ,####,   ,####,        
            ##       ##  ##   ,#'  ##            #'  '#       #'       #'  '#        
            ##       ##  #######   ##           ,######,      #####,   #    #        
            '#,     ,#'  ##    ##  '#,     ,#' ,#      #,     #,   #   #,  ,#        
             '#######'   ##     ##  '#######'  #'      '#     '####' # '####'        



                #########################################################
                #                        -***-                          #
                #          Department of theory and spectroscopy        #
                #                                                       #
                #                      Frank Neese                      #
                #                                                       #
                #     Directorship, Architecture, Infrastructure        #
                #                    SHARK, DRIVERS                     #
                #        Core code/Algorithms in most modules           #
                #                                                       #
                #        Max Planck Institute fuer Kohlenforschung      #
                #                Kaiser Wilhelm Platz 1                 #
                #                 D-45470 Muelheim/Ruhr                 #
                #                      Germany                          #
                #                                                       #
                #                  All rights reserved                  #
                #                        -***-                          #
                #########################################################


                         Program Version 6.0.1  -  RELEASE   -


 With contributions from (in alphabetic order):
[Max-Planck-Institut fuer Kohlenforschung]                               
  Daniel Aravena         : Magnetic Suceptibility                        
  Michael Atanasov       : Ab Initio Ligand Field Theory (pilot matlab implementation)
  Alexander A. Auer      : GIAO ZORA, VPT2 properties, NMR spectrum      
  Ute Becker             : All parallelization in ORCA, NUMFREQ, NUMCALC 
  Giovanni Bistoni       : ED, misc. LED, open-shell LED, HFLD           
  Martin Brehm           : Molecular dynamics                            
  Dmytro Bykov           : pre 5.0 version of the SCF Hessian            
  Marcos Casanova-Páez   : Triplet and SCS-CIS(D). UHF-(DLPNO)-IP/EA/STEOM-CCSD. UHF-CVS-IP/STEOM-CCSD   
  Vijay G. Chilkuri      : MRCI spin determinant printing, contributions to CSF-ICE 
  Pauline Colinet        : FMM embedding                                 
  Dipayan Datta          : RHF DLPNO-CCSD density                        
  Achintya Kumar Dutta   : EOM-CC, STEOM-CC                              
  Nicolas Foglia         : Exact transition moments, OPA infrastructure, MCD improvements    
  Dmitry Ganyushin       : Spin-Orbit,Spin-Spin,Magnetic field MRCI      
  Miquel Garcia-Rates    : C-PCM and meta-GGA Hessian, CCSD/C-PCM, Gaussian charge scheme 
  Tiago L. C. Gouveia    : GS-ROHF, GS-ROCIS                             
  Yang Guo               : DLPNO-NEVPT2, F12-NEVPT2, CIM, IAO-localization        
  Andreas Hansen         : Spin unrestricted coupled pair/coupled cluster methods 
  Ingolf Harden          : AUTO-CI MPn and infrastructure                
  Benjamin Helmich-Paris : MC-RPA, TRAH-(SCF,CASSCF), AVAS, COSX integrals, SCF dyn. polar. 
  Lee Huntington         : MR-EOM, pCC                                   
  Robert Izsak           : Overlap fitted RIJCOSX, COSX-SCS-MP3, EOM     
  Riya Kayal             : Wick's Theorem for AUTO-CI, AUTO-CI UHF-CCSDT 
  Emily Kempfer          : AUTO-CI, RHF CISDT and CCSDT                  
  Christian Kollmar      : KDIIS, OOCD, Brueckner-CCSD(T), CCSD density, CASPT2, CASPT2-K, improved NEVPT2 
  Axel Koslowski         : Symmetry handling                             
  Simone Kossmann        : meta-GGA functionals, TD-DFT gradient, OOMP2, (MP2 Hessian; deprecated post 5.0) 
  Lucas Lang             : DCDCAS                                        
  Marvin Lechner         : AUTO-CI (C++ implementation), FIC-MRCC        
  Spencer Leger          : CASSCF response                               
  Dagmar Lenk            : GEPOL surface, SMD, ORCA-2-JSON               
  Dimitrios Liakos       : Extrapolation schemes; Compound Job, initial MDCI parallelization 
  Dimitrios Manganas     : Further ROCIS development; embedding schemes. LFT, Crystal Embedding 
  Dimitrios Pantazis     : SARC Basis sets                               
  Anastasios Papadopoulos: AUTO-CI, single reference methods and gradients 
  Taras Petrenko         : pre 6.0 DFT Hessian and TD-DFT gradient, (ASA, deprecated), ECA, 1-Electron XAS/XES, NRVS 
  Peter Pinski           : DLPNO-MP2, DLPNO-MP2 Gradient                 
  Christoph Reimann      : Effective Core Potentials                     
  Marius Retegan         : Local ZFS, SOC                                
  Christoph Riplinger    : Optimizer, TS searches, QM/MM, DLPNO-CCSD(T), (RO)-DLPNO pert. Triples 
  Michael Roemelt        : Original ROCIS implementation                 
  Masaaki Saitow         : Open-shell DLPNO-CCSD energy and density      
  Barbara Sandhoefer     : DKH picture change effects                    
  Kantharuban Sivalingam : CASSCF convergence/infrastructure, NEVPT2 and variants, FIC-MRCI 
  Bernardo de Souza      : ESD, SOC TD-DFT                               
  Georgi L. Stoychev     : AutoAux, RI-MP2 NMR, DLPNO-MP2 response, X2C  
  Van Anh Tran           : RI-MP2 g-tensors                              
  Willem Van den Heuvel  : Paramagnetic NMR                              
  Zikuan Wang            : NOTCH, Electric field optimization            
  Frank Wennmohs         : Technical directorship and infrastructure     
  Hang Xu                : AUTO-CI-Response properties                   
                                                                         
[FACCTs GmbH]                                                            
  Markus Bursch, Miquel Garcia-Rates, Christoph Riplinger, Bernardo de Souza, Georgi L. Stoychev 
                                                                 
  APM, Basis sets (HGBS, AHGBS, def-TZVP (Ac-Lr), def2-XVPD (La-Lu)), CI-OPT, improved COSX, DLPNO-Multilevel,           
  DOCKER, DRACO, updates on ESD, GOAT, IRC, LR-CPCM, MBIS, meta-GGA TD-DFT gradient, ML-optimized integration grids, 
  MM, NACMEs, nearIR, NEB, NEB-TS, NL-DFT gradient (VV10), 2- and 3-layer-ONIOM, interface openCOSMO-RS, QMMM,   
  Crystal-QMMM, SF, symmetry and pop. for TD-DFT, r2SCAN hybrids, SOLVATOR                                   
                                                                         
[Other institutions]                                                     
  V. Asgeirsson          : NEB                                           
  Christoph Bannwarth    : sTDA-DFT, sTD-DFT, PBEh-3c, B97-3c, D3        
  Sebastian Ehlert       : rSCAN, r2SCAN, r2SCAN-3c, D4, dhf basis sets  
  Marvin Friede          : D4 for Fr, Ra, Ac-Lr                          
  Lars Goerigk           : TD-DFT with DH, B97 family of functionals     
  Stefan Grimme          : VdW corrections, initial TS optimization, DFT functionals, gCP, sTDA/sTD-DF 
  Waldemar Hujo          : DFT-NL                                        
  H. Jonsson             : NEB                                           
  Holger Kruse           : gCP                                           
  Marcel Mueller         : wB97X-3c, vDZP basis set                      
  Hagen Neugebauer       : wr2SCAN                                       
  Tobias Risthaus        : range-separated hybrid DFT                    
  Lukas Wittmann         : regularized MP2, r2SCAN double-hybrids, wr2SCAN        
                                                                         
We gratefully acknowledge several colleagues who have allowed us to      
interface, adapt or use parts of their codes:                            
  Ed Valeev, F. Pavosevic, A. Kumar             : LibInt (2-el integral package), F12 methods 
  Garnet Chan, S. Sharma, J. Yang, R. Olivares  : DMRG                   
  Ulf Ekstrom                                   : XCFun DFT Library      
  Mihaly Kallay                                 : mrcc  (arbitrary order and MRCC methods)
  Frank Weinhold                                : gennbo (NPA and NBO analysis)           
  Simon Mueller                                 : openCOSMO-RS                            
  Christopher J. Cramer and Donald G. Truhlar   : smd solvation model                     
  S Lehtola, MJT Oliveira, MAL Marques          : LibXC Library                           
  Liviu Ungur et al                             : ANISO software                          


 Your calculation uses the libint2 library for the computation of 2-el integrals
 For citations please refer to: http://libint.valeyev.net

 Your ORCA version has been built with support for libXC version: 6.2.2
 For citations please refer to: https://libxc.gitlab.io

 This ORCA versions uses:
   CBLAS   interface :  Fast vector & matrix operations
   LAPACKE interface :  Fast linear algebra routines
   SCALAPACK package :  Parallel linear algebra routines
   Shared memory     :  Shared parallel matrices
   BLAS/LAPACK       :  OpenBLAS 0.3.27  USE64BITINT DYNAMIC_ARCH NO_AFFINITY SkylakeX SINGLE_THREADED
        Core in use  :  SkylakeX
   Copyright (c) 2011-2014, The OpenBLAS Project


NOTE: MaxCore=5000 MB was set to SCF,MP2,MDCI,CIPSI,MRCI and CIS
      => If you want to overwrite this, your respective input block should be placed after the MaxCore statement
Your calculation utilizes the atom-pairwise dispersion correction
with the Becke-Johnson damping scheme (D3BJ)


Warning: RI is on but no J-basis has been assigned. Assigning Def2/J (nothing to worry about!)
================================================================================

----- Orbital basis set information -----
Your calculation utilizes the basis: def2-TZVP
   F. Weigend and R. Ahlrichs, Phys. Chem. Chem. Phys. 7, 3297 (2005).

----- AuxJ basis set information -----
Your calculation utilizes the auxiliary basis: def2/J
   F. Weigend, Phys. Chem. Chem. Phys. 8, 1057 (2006).

================================================================================
                                        WARNINGS
                       Please study these warnings very carefully!
================================================================================


WARNING: Geometry Optimization
  ===> : Switching off AutoStart
         For restart on a previous wavefunction, please use MOREAD

================================================================================
                                       INPUT FILE
================================================================================
NAME = input.inp
|  1> ! Opt B3LYP def2-TZVP TightSCF TightOpt D3BJ RIJCOSX
|  2> 
|  3> %maxcore 5000
|  4> 
|  5> %pal
|  6> nprocs 28
|  7> end
|  8> 
|  9> * xyz 0 1
| 10>   Li         -3.48123833924659      2.94792603547022     -1.70651647920000
| 11>   F          -1.75894983459213      5.86628105178845     -0.74431350725351
| 12>   O          -0.96827110806823      3.72304817790567      0.17769453646438
| 13>   P          -2.50296554947500      4.56080448578364     -0.17237934069674
| 14>   F          -3.74878867689114      5.51068463702191      0.41441315938452
| 15>   O          -1.90079024262689      4.23163055683005      1.28266370860136
| 16> *
| 17> 
| 18> 
| 19>                          ****END OF INPUT****
================================================================================

                       *****************************
                       * Geometry Optimization Run *
                       *****************************

Geometry optimization settings:
Update method            Update   .... BFGS
Choice of coordinates    CoordSys .... (2022) Redundant Internals
Initial Hessian          InHess   .... Almloef's Model
Max. no of cycles        MaxIter  .... 50

Convergence Tolerances:
Energy Change            TolE     ....  1.0000e-06 Eh
Max. Gradient            TolMAXG  ....  1.0000e-04 Eh/bohr
RMS Gradient             TolRMSG  ....  3.0000e-05 Eh/bohr
Max. Displacement        TolMAXD  ....  1.0000e-03 bohr
RMS Displacement         TolRMSD  ....  6.0000e-04 bohr
Strict Convergence                .... False

------------------------------------------------------------------------------
                        ORCA OPTIMIZATION COORDINATE SETUP
------------------------------------------------------------------------------

The optimization will be done in redundant internal coordinates (2022)
Making redundant internal coordinates   ...  (2022 redundants) done
Evaluating the initial hessian          ...  (Almloef) done
Evaluating the coordinates              ...  done
Calculating the B-matrix                .... done
Calculating the G-matrix                .... done
Diagonalizing the G-matrix              .... done
The first mode is                       ....   12
The number of degrees of freedom        ....   12

    -----------------------------------------------------------------
                    Redundant Internal Coordinates


    -----------------------------------------------------------------
         Definition                    Initial Value    Approx d2E/dq
    -----------------------------------------------------------------
      1. B(P   3,F   1)                  1.6078         0.785265   
      2. B(P   3,O   2)                  1.7832         0.443712   
      3. B(P   3,Li  0)                  2.4315         0.222175   
      4. B(F   4,P   3)                  1.6729         0.618122   
      5. B(O   5,P   3)                  1.6088         0.842065   
      6. B(O   5,O   2)                  1.5327         0.296705   
      7. A(P   3,O   2,O   5)           57.4528         0.375940   
      8. A(Li  0,P   3,F   1)          120.0234         0.455345   
      9. A(Li  0,P   3,F   4)          107.3574         0.436028   
     10. A(F   1,P   3,F   4)           90.4787         0.507576   
     11. A(F   1,P   3,O   2)           93.0402         0.479105   
     12. A(Li  0,P   3,O   2)           99.1199         0.412424   
     13. A(Li  0,P   3,O   5)          125.8410         0.462894   
     14. A(F   1,P   3,O   5)          108.3406         0.539981   
     15. A(O   2,P   3,O   5)           53.4271         0.487143   
     16. A(F   4,P   3,O   5)           94.4554         0.516201   
     17. A(O   2,P   3,F   4)          147.0166         0.458535   
     18. A(O   2,O   5,P   3)           69.1201         0.420717   
     19. D(F   4,P   3,O   2,O   5)     15.0902         0.004559   
     20. D(Li  0,P   3,O   2,O   5)   -128.2672         0.004559   
     21. D(F   1,P   3,O   2,O   5)    110.6685         0.004559   
     22. D(O   2,O   5,P   3,F   4)   -171.8273         0.013310   
     23. D(O   2,O   5,P   3,F   1)    -79.8411         0.013310   
     24. D(O   2,O   5,P   3,Li  0)     72.9958         0.013310   
    -----------------------------------------------------------------

Number of atoms                         .... 6
Number of degrees of freedom            .... 24


         *************************************************************
         *                GEOMETRY OPTIMIZATION CYCLE   1            *
         *************************************************************
---------------------------------
CARTESIAN COORDINATES (ANGSTROEM)
---------------------------------
  Li    -3.481238    2.947926   -1.706516
  F     -1.758950    5.866281   -0.744314
  O     -0.968271    3.723048    0.177695
  P     -2.502966    4.560804   -0.172379
  F     -3.748789    5.510685    0.414413
  O     -1.900790    4.231631    1.282664

----------------------------
CARTESIAN COORDINATES (A.U.)
----------------------------
  NO LB      ZA    FRAG     MASS         X           Y           Z
   0 Li    3.0000    0     6.941   -6.578587    5.570773   -3.224849
   1 F     9.0000    0    18.998   -3.323933   11.085665   -1.406549
   2 O     8.0000    0    15.999   -1.829767    7.035541    0.335794
   3 P    15.0000    0    30.974   -4.729919    8.618671   -0.325750
   4 F     9.0000    0    18.998   -7.084184   10.413685    0.783127
   5 O     8.0000    0    15.999   -3.591973    7.996623    2.423883

--------------------------------
INTERNAL COORDINATES (ANGSTROEM)
--------------------------------
 Li     0   0   0     0.000000000000     0.00000000     0.00000000
 F      1   0   0     3.522628032273     0.00000000     0.00000000
 O      2   1   0     2.463476980398    62.50919741     0.00000000
 P      2   1   3     1.607773970201    36.69985108   307.25506532
 F      4   2   1     1.672923490382    90.47871364   249.54900476
 O      3   2   1     1.532711598391    77.63502628   265.00104356

---------------------------
INTERNAL COORDINATES (A.U.)
---------------------------
 Li     0   0   0     0.000000000000     0.00000000     0.00000000
 F      1   0   0     6.656802252670     0.00000000     0.00000000
 O      2   1   0     4.655296830171    62.50919741     0.00000000
 P      2   1   3     3.038252488927    36.69985108   307.25506532
 F      4   2   1     3.161367239826    90.47871364   249.54900476
 O      3   2   1     2.896405163244    77.63502628   265.00104356

---------------------
BASIS SET INFORMATION
---------------------
There are 4 groups of distinct atoms

 Group   1 Type Li  : 11s3p contracted to 5s3p pattern {62111/111}
 Group   2 Type F   : 11s6p2d1f contracted to 5s3p2d1f pattern {62111/411/11/1}
 Group   3 Type O   : 11s6p2d1f contracted to 5s3p2d1f pattern {62111/411/11/1}
 Group   4 Type P   : 14s9p3d1f contracted to 5s5p2d1f pattern {73211/51111/21/1}

Atom   0Li   basis set group =>   1
Atom   1F    basis set group =>   2
Atom   2O    basis set group =>   3
Atom   3P    basis set group =>   4
Atom   4F    basis set group =>   2
Atom   5O    basis set group =>   3
---------------------------------
AUXILIARY/J BASIS SET INFORMATION
---------------------------------
There are 4 groups of distinct atoms

 Group   1 Type Li  : 12s5p4d2f1g contracted to 6s4p3d1f1g pattern {711111/2111/211/2/1}
 Group   2 Type F   : 12s5p4d2f1g contracted to 6s4p3d1f1g pattern {711111/2111/211/2/1}
 Group   3 Type O   : 12s5p4d2f1g contracted to 6s4p3d1f1g pattern {711111/2111/211/2/1}
 Group   4 Type P   : 14s5p5d2f1g contracted to 8s4p3d1f1g pattern {71111111/2111/311/2/1}

Atom   0Li   basis set group =>   1
Atom   1F    basis set group =>   2
Atom   2O    basis set group =>   3
Atom   3P    basis set group =>   4
Atom   4F    basis set group =>   2
Atom   5O    basis set group =>   3
--------------------------------------------------------------------------
WARNING: There was an error initializing an OpenFabrics device.

  Local host:   ga00
  Local device: mlx5_0
--------------------------------------------------------------------------


           ************************************************************
           *        Program running with 28 parallel MPI-processes    *
           *              working on a common directory               *
           ************************************************************
------------------------------------------------------------------------------
                             ORCA STARTUP CALCULATIONS
                           -- RI-GTO INTEGRALS CHOSEN --
------------------------------------------------------------------------------
------------------------------------------------------------------------------
                   ___                                                        
                  /   \      - P O W E R E D   B Y -                         
                 /     \                                                     
                 |  |  |   _    _      __       _____    __    __             
                 |  |  |  | |  | |    /  \     |  _  \  |  |  /  |          
                  \  \/   | |  | |   /    \    | | | |  |  | /  /          
                 / \  \   | |__| |  /  /\  \   | |_| |  |  |/  /          
                |  |  |   |  __  | /  /__\  \  |    /   |      \           
                |  |  |   | |  | | |   __   |  |    \   |  |\   \          
                \     /   | |  | | |  |  |  |  | |\  \  |  | \   \       
                 \___/    |_|  |_| |__|  |__|  |_| \__\ |__|  \__/        
                                                                              
                      - O R C A' S   B I G   F R I E N D -                    
                                      &                                       
                       - I N T E G R A L  F E E D E R -                       
                                                                              
 v1 FN, 2020, v2 2021, v3 2022-2024                                           
------------------------------------------------------------------------------


----------------------
SHARK INTEGRAL PACKAGE
----------------------

Number of atoms                             ...      6
Number of basis functions                   ...    175
Number of shells                            ...     65
Maximum angular momentum                    ...      3
Integral batch strategy                     ... SHARK/LIBINT Hybrid
RI-J (if used) integral strategy            ... SPLIT-RIJ (Revised 2003 algorithm where possible)
Printlevel                                  ...      1
Contraction scheme used                     ... SEGMENTED contraction
Prescreening option                         ... SCHWARTZ
   Thresh                                   ... 2.500e-11
   Tcut                                     ... 2.500e-12
   Tpresel                                  ... 2.500e-12 
Coulomb Range Separation                    ... NOT USED
Exchange Range Separation                   ... NOT USED
Multipole approximations                    ... NOT USED
Finite Nucleus Model                        ... NOT USED
CABS basis                                  ... NOT available
Auxiliary Coulomb fitting basis             ... AVAILABLE
   # of basis functions in Aux-J            ...    296
   # of shells in Aux-J                     ...     92
   Maximum angular momentum in Aux-J        ...      4
Auxiliary J/K fitting basis                 ... NOT available
Auxiliary Correlation fitting basis         ... NOT available
Auxiliary 'external' fitting basis          ... NOT available

Checking pre-screening integrals            ... done (  0.0 sec) Dimension = 65
Check shell pair data                       ... done (  0.0 sec)
Shell pair information
Shell pair cut-off parameter TPreSel        ...   2.5e-12
Total number of shell pairs                 ...      2145
Shell pairs after pre-screening             ...      1951
Total number of primitive shell pairs       ...      7521
Primitive shell pairs kept                  ...      5081
          la=0 lb=0:    390 shell pairs
          la=1 lb=0:    551 shell pairs
          la=1 lb=1:    204 shell pairs
          la=2 lb=0:    267 shell pairs
          la=2 lb=1:    194 shell pairs
          la=2 lb=2:     54 shell pairs
          la=3 lb=0:    133 shell pairs
          la=3 lb=1:     95 shell pairs
          la=3 lb=2:     48 shell pairs
          la=3 lb=3:     15 shell pairs

Calculating one electron integrals          ... done (  0.0 sec)
Calculating RI/J V-Matrix + Cholesky decomp.... done (  0.0 sec)
Calculating Nuclear repulsion               ... done (  0.0 sec) ENN=    285.668338814562 Eh

Diagonalization of the overlap matrix:
Smallest eigenvalue                        ... 2.298e-03
Time for diagonalization                   ...    0.003 sec
Threshold for overlap eigenvalues          ... 1.000e-07
Number of eigenvalues below threshold      ... 0
Time for construction of square roots      ...    0.002 sec
Total time needed                          ...    0.005 sec

-------------------
DFT GRID GENERATION
-------------------

General Integration Accuracy     IntAcc      ... 4.388
Radial Grid Type                 RadialGrid  ... OptM3 with GC (2021)
Angular Grid (max. ang.)         AngularGrid ... 4 (Lebedev-302)
Angular grid pruning method      GridPruning ... 4 (adaptive)
Weight generation scheme         WeightScheme... mBecke (2022)
Basis function cutoff            BFCut       ... 1.0000e-11
Integration weight cutoff        WCut        ... 1.0000e-14
Partially contracted basis set               ... off
Rotationally invariant grid construction     ... off
Angular grids for H and He will be reduced by one unit

Total number of grid points                  ...    37839
Total number of batches                      ...      595
Average number of points per batch           ...       63
Average number of grid points per atom       ...     6306

--------------------
COSX GRID GENERATION
--------------------

GRIDX 1
-------
General Integration Accuracy     IntAcc      ... 3.816
Radial Grid Type                 RadialGrid  ... OptM3 with GC (2021)
Angular Grid (max. ang.)         AngularGrid ... 1 (Lebedev-50)
Angular grid pruning method      GridPruning ... 4 (adaptive)
Weight generation scheme         WeightScheme... mBecke (2022)
Basis function cutoff            BFCut       ... 1.0000e-11
Integration weight cutoff        WCut        ... 1.0000e-14
Partially contracted basis set               ... on
Rotationally invariant grid construction     ... off
Angular grids for H and He will be reduced by one unit

Total number of grid points                  ...     5807
Total number of batches                      ...       48
Average number of points per batch           ...      120
Average number of grid points per atom       ...      968
UseSFitting                                  ... on

GRIDX 2
-------
General Integration Accuracy     IntAcc      ... 4.020
Radial Grid Type                 RadialGrid  ... OptM3 with GC (2021)
Angular Grid (max. ang.)         AngularGrid ... 2 (Lebedev-110)
Angular grid pruning method      GridPruning ... 4 (adaptive)
Weight generation scheme         WeightScheme... mBecke (2022)
Basis function cutoff            BFCut       ... 1.0000e-11
Integration weight cutoff        WCut        ... 1.0000e-14
Partially contracted basis set               ... on
Rotationally invariant grid construction     ... off
Angular grids for H and He will be reduced by one unit

Total number of grid points                  ...    11262
Total number of batches                      ...       91
Average number of points per batch           ...      123
Average number of grid points per atom       ...     1877
UseSFitting                                  ... on

GRIDX 3
-------
General Integration Accuracy     IntAcc      ... 4.338
Radial Grid Type                 RadialGrid  ... OptM3 with GC (2021)
Angular Grid (max. ang.)         AngularGrid ... 3 (Lebedev-194)
Angular grid pruning method      GridPruning ... 4 (adaptive)
Weight generation scheme         WeightScheme... mBecke (2022)
Basis function cutoff            BFCut       ... 1.0000e-11
Integration weight cutoff        WCut        ... 1.0000e-14
Partially contracted basis set               ... on
Rotationally invariant grid construction     ... off
Angular grids for H and He will be reduced by one unit

Total number of grid points                  ...    25709
Total number of batches                      ...      205
Average number of points per batch           ...      125
Average number of grid points per atom       ...     4285
UseSFitting                                  ... on
Initializing property integral containers    ... done (  0.0 sec)

SHARK setup successfully completed in   0.4 seconds

Maximum memory used throughout the entire STARTUP-calculation: 15.3 MB
[ga00:4076699] 27 more processes have sent help message help-mpi-btl-openib.txt / error in device init
[ga00:4076699] Set MCA parameter "orte_base_help_aggregate" to 0 to see all help / error messages
--------------------------------------------------------------------------
WARNING: There was an error initializing an OpenFabrics device.

  Local host:   ga00
  Local device: mlx5_0
--------------------------------------------------------------------------


           ************************************************************
           *        Program running with 28 parallel MPI-processes    *
           *              working on a common directory               *
           ************************************************************
-------------------------------------------------------------------------------
                                 ORCA GUESS
                   Start orbitals & Density for SCF / CASSCF
-------------------------------------------------------------------------------

------------
SCF SETTINGS
------------
Hamiltonian:
 Density Functional     Method          .... DFT(GTOs)
 Exchange Functional    Exchange        .... B88
   X-Alpha parameter    XAlpha          ....  0.666667
   Becke's b parameter  XBeta           ....  0.004200
 Correlation Functional Correlation     .... LYP
 LDA part of GGA corr.  LDAOpt          .... VWN-5
 Gradients option       PostSCFGGA      .... off
 Hybrid DFT is turned on
   Fraction HF Exchange ScalHFX         ....  0.200000
   Scaling of DF-GGA-X  ScalDFX         ....  0.720000
   Scaling of DF-GGA-C  ScalDFC         ....  0.810000
   Scaling of DF-LDA-C  ScalLDAC        ....  1.000000
   Perturbative correction              ....  0.000000
   NL short-range parameter             ....  4.800000
 RI-approximation to the Coulomb term is turned on
   Number of AuxJ basis functions       .... 296
   RIJ-COSX (HFX calculated with COS-X)).... on


General Settings:
 Integral files         IntName         .... input
 Hartree-Fock type      HFTyp           .... RHF
 Total Charge           Charge          ....    0
 Multiplicity           Mult            ....    1
 Number of Electrons    NEL             ....   52
 Basis Dimension        Dim             ....  175
 Nuclear Repulsion      ENuc            ....    285.6683388146 Eh

Convergence Acceleration:
 AO-DIIS                CNVDIIS         .... on
   Start iteration      DIISMaxIt       ....    12
   Startup error        DIISStart       ....  0.200000
   # of expansion vecs  DIISMaxEq       ....     5
   Bias factor          DIISBfac        ....   1.050
   Max. coefficient     DIISMaxC        ....  10.000
 MO-DIIS                CNVKDIIS        .... off
 Trust-Rad. Augm. Hess. CNVTRAH         .... auto
   Auto Start mean grad. ratio tolernc. ....  1.125000
   Auto Start start iteration           ....    50
   Auto Start num. interpolation iter.  ....    10
   Max. Number of Micro iterations      ....    24
   Max. Number of Macro iterations      .... Maxiter - #DIIS iter
   Number of Davidson start vectors     ....     2
   Converg. threshold    (grad. norm)   ....   1.000e-05
   Grad. Scal. Fac. for Micro threshold ....   0.100
   Minimum threshold for Micro iter.    ....   1.000e-02
   NR start threshold (gradient norm)   ....   1.000e-04
   Initial trust radius                 ....   0.400
   Minimum AH scaling param. (alpha)    ....   1.000
   Maximum AH scaling param. (alpha)    .... 1000.000
   Quad. conv. algorithm                .... NR
   White noise on init. David. guess    .... on
   Maximum white noise                  ....   0.010
   Pseudo random numbers                .... off
   Inactive MOs                         .... canonical
   Orbital update algorithm             .... Taylor
   Preconditioner                       .... Diag
   Full preconditioner red. dimension   ....   250
 SOSCF                  CNVSOSCF        .... on
   Start iteration      SOSCFMaxIt      ....   150
   Startup grad/error   SOSCFStart      ....  0.003300
   Hessian update       SOSCFHessUp     .... L-BFGS
 Level Shifting         CNVShift        .... on
   Level shift para.    LevelShift      ....    0.2500
   Turn off err/grad.   ShiftErr        ....    0.0010
 Zerner damping         CNVZerner       .... off
 Static damping         CNVDamp         .... on
   Fraction old density DampFac         ....    0.7000
   Max. Damping (<1)    DampMax         ....    0.9800
   Min. Damping (>=0)   DampMin         ....    0.0000
   Turn off err/grad.   DampErr         ....    0.1000

SCF Procedure:
 Maximum # iterations   MaxIter         ....   125
 SCF integral mode      SCFMode         .... Direct
   Integral package                     .... SHARK and LIBINT hybrid scheme
 Reset frequency        DirectResetFreq ....    20
 Integral Threshold     Thresh          ....  2.500e-11 Eh
 Primitive CutOff       TCut            ....  2.500e-12 Eh

Convergence Tolerance:
 Convergence Check Mode ConvCheckMode   .... Total+1el-Energy
 Convergence forced     ConvForced      .... 0
 Energy Change          TolE            ....  1.000e-08 Eh
 1-El. energy change                    ....  1.000e-05 Eh
 Orbital Gradient       TolG            ....  1.000e-05
 Orbital Rotation angle TolX            ....  1.000e-05
 DIIS Error             TolErr          ....  5.000e-07

------------------------------
INITIAL GUESS: MODEL POTENTIAL
------------------------------
Loading Hartree-Fock densities                     ... done
Calculating cut-offs                               ... done
Initializing the effective Hamiltonian             ... done
Setting up the integral package (SHARK)            ... done
Starting the Coulomb interaction                   ... done (   0.0 sec)
Making the grid                                    ... done (   0.0 sec)
Mapping shells                                     ... done
Starting the XC term evaluation                    ... done (   0.0 sec)
  promolecular density results
     # of electrons  =     52.000130431
     EX              =    -60.880955258
     EC              =     -1.972568602
     EX+EC           =    -62.853523860
Transforming the Hamiltonian                       ... done (   0.0 sec)
Diagonalizing the Hamiltonian                      ... done (   0.0 sec)
Back transforming the eigenvectors                 ... done (   0.0 sec)
Now organizing SCF variables                       ... done
                      ------------------
                      INITIAL GUESS DONE (   0.1 sec)
                      ------------------
             **** ENERGY FILE WAS UPDATED (input.en.tmp) ****
Finished Guess after   0.7 sec
Maximum memory used throughout the entire GUESS-calculation: 9.7 MB
[ga00:4076830] 27 more processes have sent help message help-mpi-btl-openib.txt / error in device init
[ga00:4076830] Set MCA parameter "orte_base_help_aggregate" to 0 to see all help / error messages
--------------------------------------------------------------------------
WARNING: There was an error initializing an OpenFabrics device.

  Local host:   ga00
  Local device: mlx5_0
--------------------------------------------------------------------------


           ************************************************************
           *        Program running with 28 parallel MPI-processes    *
           *              working on a common directory               *
           ************************************************************

-------------------------------------------------------------------------------------------
                                      ORCA LEAN-SCF
                              memory conserving SCF solver
-------------------------------------------------------------------------------------------

----------------------------------------D-I-I-S--------------------------------------------
Iteration    Energy (Eh)           Delta-E    RMSDP     MaxDP     DIISErr   Damp  Time(sec)
-------------------------------------------------------------------------------------------
               ***  Starting incremental Fock matrix formation  ***
    1    -698.8659724803798099     0.00e+00  1.64e-03  3.39e-02  2.12e-01  0.700   0.2
Warning: op=0 Small HOMO/LUMO gap (   0.074) - skipping pre-diagonalization
         Will do a full diagonalization
    2    -698.9340769073963884    -6.81e-02  1.03e-03  2.47e-02  7.89e-02  0.700   0.1
                               ***Turning on AO-DIIS***
    3    -698.9577136890842439    -2.36e-02  4.61e-04  1.62e-02  2.07e-02  0.700   0.1
    4    -698.9724309947456504    -1.47e-02  8.81e-04  3.66e-02  9.95e-03  0.000   0.1
    5    -699.0062750060798180    -3.38e-02  1.79e-04  9.97e-03  4.31e-03  0.000   0.1
                              *** Initializing SOSCF ***
---------------------------------------S-O-S-C-F--------------------------------------
Iteration    Energy (Eh)           Delta-E    RMSDP     MaxDP     MaxGrad    Time(sec)
--------------------------------------------------------------------------------------
    6    -699.0063791610153885    -1.04e-04  6.06e-05  2.28e-03  2.65e-03     0.1
               *** Restarting incremental Fock matrix formation ***
    7    -699.0064018235173080    -2.27e-05  5.91e-05  1.56e-03  4.32e-04     0.1
    8    -699.0063927645522881     9.06e-06  3.19e-05  9.21e-04  1.32e-03     0.1
    9    -699.0064093664482243    -1.66e-05  1.44e-05  3.50e-04  1.57e-04     0.1
   10    -699.0064088471890500     5.19e-07  8.10e-06  1.75e-04  2.00e-04     0.1
   11    -699.0064098324355655    -9.85e-07  2.24e-06  9.36e-05  1.51e-05     0.1
   12    -699.0064098371145747    -4.68e-09  9.52e-07  3.74e-05  1.52e-05     0.1
                 **** Energy Check signals convergence ****

               *****************************************************
               *                     SUCCESS                       *
               *           SCF CONVERGED AFTER  12 CYCLES          *
               *****************************************************

Recomputing exchange energy using gridx3       ... done (    0.158 sec)
Old exchange energy                            :    -12.210400285 Eh
New exchange energy                            :    -12.210394738 Eh
Exchange energy change after final integration :      0.000005547 Eh
Total energy after final integration           :   -699.006404290 Eh
             **** ENERGY FILE WAS UPDATED (input.en.tmp) ****

----------------
TOTAL SCF ENERGY
----------------

Total Energy       :       -699.00640429018245 Eh          -19020.93127 eV

Components:
Nuclear Repulsion  :        285.66833881456182 Eh            7773.43069 eV
Electronic Energy  :       -984.67474865167640 Eh          -26794.36211 eV
One Electron Energy:      -1539.49893482622406 Eh          -41891.89576 eV
Two Electron Energy:        554.82418617454766 Eh           15097.53365 eV

Virial components:
Potential Energy   :      -1396.01425666655837 Eh          -37987.47917 eV
Kinetic Energy     :        697.00785237637592 Eh           18966.54790 eV
Virial Ratio       :          2.00286733055731

DFT components:
N(Alpha)           :       25.999988240906 electrons
N(Beta)            :       25.999988240906 electrons
N(Total)           :       51.999976481811 electrons
E(X)               :      -48.639899939788 Eh       
E(C)               :       -2.326777666588 Eh       
E(XC)              :      -50.966677606376 Eh       

---------------
SCF CONVERGENCE
---------------

  Last Energy change         ...    4.6790e-09  Tolerance :   1.0000e-08
  Last MAX-Density change    ...    3.7366e-05  Tolerance :   1.0000e-07
  Last RMS-Density change    ...    9.5159e-07  Tolerance :   5.0000e-09
  Last DIIS Error            ...    2.6541e-03  Tolerance :   5.0000e-07
  Last Orbital Gradient      ...    1.5165e-05  Tolerance :   1.0000e-05
  Last Orbital Rotation      ...    1.5166e-05  Tolerance :   1.0000e-05


----------------
ORBITAL ENERGIES
----------------

  NO   OCC          E(Eh)            E(eV) 
   0   2.0000     -77.160419     -2099.6418 
   1   2.0000     -24.654026      -670.8702 
   2   2.0000     -24.625067      -670.0821 
   3   2.0000     -19.151063      -521.1269 
   4   2.0000     -19.121141      -520.3127 
   5   2.0000      -6.624449      -180.2604 
   6   2.0000      -4.787374      -130.2711 
   7   2.0000      -4.787169      -130.2655 
   8   2.0000      -4.783139      -130.1558 
   9   2.0000      -2.099799       -57.1384 
  10   2.0000      -1.187234       -32.3063 
  11   2.0000      -1.133594       -30.8467 
  12   2.0000      -1.072539       -29.1853 
  13   2.0000      -0.811359       -22.0782 
  14   2.0000      -0.597665       -16.2633 
  15   2.0000      -0.479965       -13.0605 
  16   2.0000      -0.470678       -12.8078 
  17   2.0000      -0.451519       -12.2864 
  18   2.0000      -0.421895       -11.4804 
  19   2.0000      -0.402885       -10.9631 
  20   2.0000      -0.379260       -10.3202 
  21   2.0000      -0.367741       -10.0067 
  22   2.0000      -0.356347        -9.6967 
  23   2.0000      -0.306353        -8.3363 
  24   2.0000      -0.256715        -6.9856 
  25   2.0000      -0.229267        -6.2387 
  26   0.0000      -0.086991        -2.3672 
  27   0.0000      -0.043264        -1.1773 
  28   0.0000      -0.028972        -0.7884 
  29   0.0000       0.012468         0.3393 
  30   0.0000       0.051330         1.3968 
  31   0.0000       0.069954         1.9035 
  32   0.0000       0.078436         2.1343 
  33   0.0000       0.127803         3.4777 
  34   0.0000       0.156310         4.2534 
  35   0.0000       0.272354         7.4111 
  36   0.0000       0.286394         7.7932 
*Only the first 10 virtual orbitals were printed.

                    ********************************
                    * MULLIKEN POPULATION ANALYSIS *
                    ********************************

-----------------------
MULLIKEN ATOMIC CHARGES
-----------------------
   0 Li:    0.721554
   1 F :   -0.279076
   2 O :   -0.348024
   3 P :    0.490872
   4 F :   -0.351516
   5 O :   -0.233810
Sum of atomic charges:    0.0000000

--------------------------------
MULLIKEN REDUCED ORBITAL CHARGES
--------------------------------
  0 Lis       :     2.161823  s :     2.161823
      pz      :     0.038338  p :     0.116623
      px      :     0.022497
      py      :     0.055788

  1 F s       :     3.903972  s :     3.903972
      pz      :     1.846661  p :     5.363223
      px      :     1.829997
      py      :     1.686566
      dz2     :     0.001482  d :     0.011494
      dxz     :     0.001159
      dyz     :     0.002816
      dx2y2   :     0.002660
      dxy     :     0.003377
      f0      :     0.000038  f :     0.000387
      f+1     :     0.000017
      f-1     :     0.000050
      f+2     :     0.000044
      f-2     :     0.000077
      f+3     :     0.000095
      f-3     :     0.000066

  2 O s       :     3.912271  s :     3.912271
      pz      :     1.177806  p :     4.403732
      px      :     1.448561
      py      :     1.777365
      dz2     :     0.004463  d :     0.030529
      dxz     :     0.009936
      dyz     :     0.004522
      dx2y2   :     0.005163
      dxy     :     0.006445
      f0      :     0.000083  f :     0.001492
      f+1     :     0.000269
      f-1     :     0.000099
      f+2     :     0.000241
      f-2     :     0.000338
      f+3     :     0.000184
      f-3     :     0.000278

  3 P s       :     5.628852  s :     5.628852
      pz      :     2.723170  p :     8.031109
      px      :     2.641631
      py      :     2.666308
      dz2     :     0.137228  d :     0.720185
      dxz     :     0.121837
      dyz     :     0.150130
      dx2y2   :     0.130578
      dxy     :     0.180412
      f0      :     0.018391  f :     0.128981
      f+1     :     0.019352
      f-1     :     0.018249
      f+2     :     0.012175
      f-2     :     0.016855
      f+3     :     0.023126
      f-3     :     0.020834

  4 F s       :     3.917499  s :     3.917499
      pz      :     1.864249  p :     5.424353
      px      :     1.750592
      py      :     1.809513
      dz2     :     0.001226  d :     0.009377
      dxz     :     0.001839
      dyz     :     0.001302
      dx2y2   :     0.001972
      dxy     :     0.003038
      f0      :     0.000030  f :     0.000288
      f+1     :     0.000032
      f-1     :     0.000018
      f+2     :     0.000024
      f-2     :     0.000064
      f+3     :     0.000049
      f-3     :     0.000071

  5 O s       :     3.852462  s :     3.852462
      pz      :     1.316417  p :     4.339630
      px      :     1.344920
      py      :     1.678293
      dz2     :     0.010798  d :     0.039981
      dxz     :     0.013393
      dyz     :     0.009113
      dx2y2   :     0.003620
      dxy     :     0.003056
      f0      :     0.000322  f :     0.001737
      f+1     :     0.000447
      f-1     :     0.000304
      f+2     :     0.000235
      f-2     :     0.000262
      f+3     :     0.000066
      f-3     :     0.000101



                     *******************************
                     * LOEWDIN POPULATION ANALYSIS *
                     *******************************

----------------------
LOEWDIN ATOMIC CHARGES
----------------------
   0 Li:    0.548175
   1 F :   -0.078489
   2 O :   -0.227826
   3 P :    0.023992
   4 F :   -0.178764
   5 O :   -0.087088

-------------------------------
LOEWDIN REDUCED ORBITAL CHARGES
-------------------------------
  0 Lis       :     2.228284  s :     2.228284
      pz      :     0.078503  p :     0.223541
      px      :     0.042280
      py      :     0.102758

  1 F s       :     3.706430  s :     3.706430
      pz      :     1.807336  p :     5.351740
      px      :     1.812653
      py      :     1.731751
      dz2     :     0.002832  d :     0.019673
      dxz     :     0.001712
      dyz     :     0.003867
      dx2y2   :     0.004064
      dxy     :     0.007197
      f0      :     0.000066  f :     0.000646
      f+1     :     0.000027
      f-1     :     0.000084
      f+2     :     0.000064
      f-2     :     0.000122
      f+3     :     0.000203
      f-3     :     0.000081

  2 O s       :     3.662033  s :     3.662033
      pz      :     1.206192  p :     4.485313
      px      :     1.516226
      py      :     1.762895
      dz2     :     0.013759  d :     0.075757
      dxz     :     0.022896
      dyz     :     0.010635
      dx2y2   :     0.012965
      dxy     :     0.015502
      f0      :     0.000403  f :     0.004724
      f+1     :     0.001143
      f-1     :     0.000423
      f+2     :     0.000745
      f-2     :     0.000927
      f+3     :     0.000403
      f-3     :     0.000679

  3 P s       :     4.981713  s :     4.981713
      pz      :     2.809905  p :     8.255368
      px      :     2.715680
      py      :     2.729783
      dz2     :     0.261424  d :     1.325021
      dxz     :     0.225607
      dyz     :     0.260555
      dx2y2   :     0.221604
      dxy     :     0.355831
      f0      :     0.062300  f :     0.413907
      f+1     :     0.063305
      f-1     :     0.053512
      f+2     :     0.036644
      f-2     :     0.061315
      f+3     :     0.071334
      f-3     :     0.065497

  4 F s       :     3.742831  s :     3.742831
      pz      :     1.841265  p :     5.418167
      px      :     1.764529
      py      :     1.812373
      dz2     :     0.001790  d :     0.017243
      dxz     :     0.003362
      dyz     :     0.002971
      dx2y2   :     0.002492
      dxy     :     0.006628
      f0      :     0.000062  f :     0.000523
      f+1     :     0.000048
      f-1     :     0.000028
      f+2     :     0.000035
      f-2     :     0.000139
      f+3     :     0.000087
      f-3     :     0.000122

  5 O s       :     3.566985  s :     3.566985
      pz      :     1.442239  p :     4.424315
      px      :     1.350517
      py      :     1.631558
      dz2     :     0.025839  d :     0.090271
      dxz     :     0.029995
      dyz     :     0.015865
      dx2y2   :     0.009359
      dxy     :     0.009213
      f0      :     0.001054  f :     0.005517
      f+1     :     0.001574
      f-1     :     0.000647
      f+2     :     0.000840
      f-2     :     0.000952
      f+3     :     0.000211
      f-3     :     0.000239



                      *****************************
                      * MAYER POPULATION ANALYSIS *
                      *****************************

  NA   - Mulliken gross atomic population
  ZA   - Total nuclear charge
  QA   - Mulliken gross atomic charge
  VA   - Mayer's total valence
  BVA  - Mayer's bonded valence
  FA   - Mayer's free valence

  ATOM       NA         ZA         QA         VA         BVA        FA
  0 Li     2.2784     3.0000     0.7216     0.4925     0.4925    -0.0000
  1 F      9.2791     9.0000    -0.2791     1.0210     1.0210     0.0000
  2 O      8.3480     8.0000    -0.3480     1.6577     1.6577    -0.0000
  3 P     14.5091    15.0000     0.4909     4.1920     4.1920     0.0000
  4 F      9.3515     9.0000    -0.3515     0.9264     0.9264     0.0000
  5 O      8.2338     8.0000    -0.2338     1.9649     1.9649    -0.0000

  Mayer bond orders larger than 0.100000
B(  0-Li,  3-P ) :   0.4029 B(  1-F ,  3-P ) :   1.0175 B(  2-O ,  3-P ) :   0.7671 
B(  2-O ,  5-O ) :   0.8449 B(  3-P ,  4-F ) :   0.9045 B(  3-P ,  5-O ) :   1.1000 


-------
TIMINGS
-------

Total SCF time: 0 days 0 hours 0 min 2 sec 

Total time                  ....       2.344 sec
Sum of individual times     ....       2.333 sec  ( 99.5%)

SCF preparation             ....       0.619 sec  ( 26.4%)
Fock matrix formation       ....       1.507 sec  ( 64.3%)
  Startup                   ....       0.009 sec  (  0.6% of F)
  Split-RI-J                ....       0.134 sec  (  8.9% of F)
  Chain of spheres X        ....       1.095 sec  ( 72.7% of F)
  XC integration            ....       0.235 sec  ( 15.6% of F)
    XC Preparation          ....       0.000 sec  (  0.0% of XC)
    Basis function eval.    ....       0.051 sec  ( 21.7% of XC)
    Density eval.           ....       0.038 sec  ( 16.1% of XC)
    XC-Functional eval.     ....       0.010 sec  (  4.1% of XC)
    XC-Potential eval.      ....       0.049 sec  ( 21.0% of XC)
Diagonalization             ....       0.000 sec  (  0.0%)
Density matrix formation    ....       0.021 sec  (  0.9%)
Total Energy calculation    ....       0.018 sec  (  0.8%)
Population analysis         ....       0.011 sec  (  0.4%)
Orbital Transformation      ....       0.021 sec  (  0.9%)
Orbital Orthonormalization  ....       0.000 sec  (  0.0%)
DIIS solution               ....       0.090 sec  (  3.8%)
SOSCF solution              ....       0.046 sec  (  2.0%)
Finished LeanSCF after   2.4 sec

Maximum memory used throughout the entire LEANSCF-calculation: 13.5 MB
[ga00:4076953] 27 more processes have sent help message help-mpi-btl-openib.txt / error in device init
[ga00:4076953] Set MCA parameter "orte_base_help_aggregate" to 0 to see all help / error messages


-------------------------------------------------------------------------------
                          DFT DISPERSION CORRECTION                            
                                                                               
                              DFTD3 V3.1  Rev 1                                
                          USING Becke-Johnson damping                          
-------------------------------------------------------------------------------
The B3LYP functional is recognized
Active option DFTDOPT                   ...         4   

molecular C6(AA) [au] = 1028.658111 


            DFT-D V3
 parameters
 s6 scaling factor         :     1.0000 
 a1 scaling factor         :     0.3981 
 s8 scaling factor         :     1.9889 
 a2 scaling factor         :     4.4211 
 ad hoc parameters k1-k3   :    16.0000     1.3333    -4.0000 

 Edisp/kcal,au: -5.105783823638  -0.008136583574 
 E6   /kcal   :  -2.030055609 
 E8   /kcal   :  -3.075728215 
 % E8         :  60.240079120 

-------------------------   ----------------
Dispersion correction           -0.008136584
-------------------------   ----------------


-------------------------   --------------------
FINAL SINGLE POINT ENERGY      -699.014540873756
-------------------------   --------------------

--------------------------------------------------------------------------
WARNING: There was an error initializing an OpenFabrics device.

  Local host:   ga00
  Local device: mlx5_0
--------------------------------------------------------------------------


           ************************************************************
           *        Program running with 28 parallel MPI-processes    *
           *              working on a common directory               *
           ************************************************************
------------------------------------------------------------------------------
                         ORCA SCF GRADIENT CALCULATION
------------------------------------------------------------------------------

Nuc. rep. gradient        (SHARK) ... done (  0.0 sec)
HCore & Overlap gradient  (SHARK) ... done (  0.0 sec)
Split-RIJ-J gradient      (SHARK) ... done (  0.1 sec)
COSX-gradient                     ... done (  0.6 sec)
XC gradient                       ... done (  0.1 sec)
Dispersion correction             ... done (  0.1 sec)

-------------------
DISPERSION GRADIENT
-------------------

   1   Li  :   -0.000245036   -0.000315516   -0.000348802
   2   F   :    0.000080709    0.000197375   -0.000058508
   3   O   :    0.000213309   -0.000069930    0.000091533
   4   P   :    0.000011417    0.000038504    0.000027255
   5   F   :   -0.000159001    0.000162266    0.000085123
   6   O   :    0.000098602   -0.000012701    0.000203400

Difference to translation invariance:
           :   -0.0000000000    0.0000000000    0.0000000000

Difference to rotation invariance:
           :    0.0000000000    0.0000000000    0.0000000000

Norm of the Dispersion gradient    ...    0.0007080877
RMS gradient                       ...    0.0001668979
MAX gradient                       ...    0.0003488025

------------------
CARTESIAN GRADIENT
------------------

   1   Li  :   -0.004706422   -0.005221465   -0.006607416
   2   F   :    0.005761826    0.007849337    0.003274012
   3   O   :    0.009370564    0.000784295    0.006862324
   4   P   :   -0.014249309   -0.015448492   -0.017582379
   5   F   :   -0.001945687    0.008636146    0.007277978
   6   O   :    0.005769029    0.003400180    0.006775481

Difference to translation invariance:
           :    0.0000000001   -0.0000000000    0.0000000000

Difference to rotation invariance:
           :    0.0001026301    0.0000254692   -0.0001422745

Norm of the Cartesian gradient     ...    0.0361530431
RMS gradient                       ...    0.0085213540
MAX gradient                       ...    0.0175823791

-------
TIMINGS
-------

Total SCF gradient time     ....        0.866 sec

Densities                   ....       0.001 sec  (  0.1%)
One electron gradient       ....       0.016 sec  (  1.8%)
RI-J Coulomb gradient       ....       0.098 sec  ( 11.3%)
COSX gradient               ....       0.597 sec  ( 68.9%)
XC gradient                 ....       0.093 sec  ( 10.8%)

Maximum memory used throughout the entire SCFGRAD-calculation: 28.5 MB
[ga00:4077087] 27 more processes have sent help message help-mpi-btl-openib.txt / error in device init
[ga00:4077087] Set MCA parameter "orte_base_help_aggregate" to 0 to see all help / error messages
------------------------------------------------------------------------------
                         ORCA GEOMETRY RELAXATION STEP
------------------------------------------------------------------------------

Reading the OPT-File                    .... done
Getting information on internals        .... done
Copying old internal coords+grads       .... done
Making the new internal coordinates     .... (2022 redundants) done
Validating the new internal coordinates .... (2022 redundants) done
Calculating the B-matrix                .... done
Calculating the G,G- and P matrices     .... done
Transforming gradient to internals      .... done
Projecting the internal gradient        .... done
Number of atoms                         ....   6
Number of internal coordinates          ....  24
Current Energy                          ....  -699.014540874 Eh
Current gradient norm                   ....     0.036153043 Eh/bohr
Maximum allowed component of the step   ....  0.300
Current trust radius                    ....  0.300
Evaluating the initial hessian          ....  (Almloef) done
Projecting the Hessian                  .... done
Forming the augmented Hessian           .... done
Diagonalizing the augmented Hessian     .... done
Last element of RFO vector              ....  0.995641545
Lowest eigenvalues of augmented Hessian:
 -0.002110408  0.044104022  0.177930071  0.222575670  0.255953727
Length of the computed step             ....  0.093670867
The final length of the internal step   ....  0.093670867
Converting the step to Cartesian space:
 Initial RMS(Int)=    0.0191204856
Transforming coordinates:
 Iter   0:  RMS(Cart)=    0.0216830721 RMS(Int)=    0.0192935294
done
Storing new coordinates                 .... done

                                .--------------------.
          ----------------------|Geometry convergence|-------------------------
          Item                value                   Tolerance       Converged
          ---------------------------------------------------------------------
          RMS gradient        0.0056905424            0.0000300000      NO
          MAX gradient        0.0095271522            0.0001000000      NO
          RMS step            0.0191204856            0.0006000000      NO
          MAX step            0.0481680625            0.0010000000      NO
          ........................................................
          Max(Bonds)      0.0225      Max(Angles)    1.21
          Max(Dihed)        2.76      Max(Improp)    0.00
          ---------------------------------------------------------------------

The optimization has not yet converged - more geometry cycles are needed


    ---------------------------------------------------------------------------
                         Redundant Internal Coordinates
                            (Angstroem and degrees)

        Definition                    Value    dE/dq     Step     New-Value
    ----------------------------------------------------------------------------
     1. B(P   3,F   1)                1.6078  0.007874 -0.0053    1.6025   
     2. B(P   3,O   2)                1.7832  0.009284 -0.0102    1.7730   
     3. B(P   3,Li  0)                2.4315  0.009527 -0.0225    2.4090   
     4. B(F   4,P   3)                1.6729  0.008905 -0.0076    1.6653   
     5. B(O   5,P   3)                1.6088  0.008210 -0.0054    1.6034   
     6. B(O   5,O   2)                1.5327 -0.000930  0.0009    1.5336   
     7. A(P   3,O   2,O   5)           57.45  0.001112    0.02     57.47   
     8. A(Li  0,P   3,F   1)          120.02  0.003976   -0.57    119.46   
     9. A(Li  0,P   3,F   4)          107.36  0.003794   -0.82    106.54   
    10. A(F   1,P   3,F   4)           90.48 -0.001863    1.08     91.56   
    11. A(F   1,P   3,O   2)           93.04 -0.003369    0.85     93.89   
    12. A(Li  0,P   3,O   2)           99.12  0.005990   -1.19     97.93   
    13. A(Li  0,P   3,O   5)          125.84  0.004917   -0.82    125.02   
    14. A(F   1,P   3,O   5)          108.34 -0.008122    1.21    109.55   
    15. A(O   2,P   3,O   5)           53.43 -0.003116    0.31     53.74   
    16. A(F   4,P   3,O   5)           94.46 -0.005595    0.54     95.00   
    17. A(O   2,P   3,F   4)          147.02 -0.009297    1.19    148.21   
    18. A(O   2,O   5,P   3)           69.12  0.002004   -0.33     68.79   
    19. D(F   4,P   3,O   2,O   5)     15.09  0.003597   -2.76     12.33   
    20. D(Li  0,P   3,O   2,O   5)   -128.27 -0.002688    0.22   -128.05   
    21. D(F   1,P   3,O   2,O   5)    110.67 -0.006975    0.80    111.47   
    22. D(O   2,O   5,P   3,F   4)   -171.83  0.003910   -1.73   -173.56   
    23. D(O   2,O   5,P   3,F   1)    -79.84 -0.000657   -0.30    -80.14   
    24. D(O   2,O   5,P   3,Li  0)     73.00  0.001538   -0.76     72.24   
    ----------------------------------------------------------------------------

Geometry step timings:
Preparation and reading OPT file:      0.000 s (13.063 %)
Internal coordinates            :      0.000 s ( 3.153 %)
B/P matrices and projection     :      0.000 s (20.871 %)
Hessian update/contruction      :      0.000 s (10.511 %)
Making the step                 :      0.000 s (13.964 %)
Converting the step to Cartesian:      0.000 s ( 4.955 %)
Storing new data                :      0.000 s ( 2.402 %)
Checking convergence            :      0.000 s ( 0.150 %)
Final printing                  :      0.000 s (29.730 %)
Total time                      :      0.001 s
--------------------------------------------------------------------------
WARNING: There was an error initializing an OpenFabrics device.

  Local host:   ga00
  Local device: mlx5_0
--------------------------------------------------------------------------
[ga00:4077215] 27 more processes have sent help message help-mpi-btl-openib.txt / error in device init
[ga00:4077215] Set MCA parameter "orte_base_help_aggregate" to 0 to see all help / error messages

Time for energy+gradient        :      7.425 s
Time for complete geometry iter :      8.359 s

         *************************************************************
         *                GEOMETRY OPTIMIZATION CYCLE   2            *
         *************************************************************
---------------------------------
CARTESIAN COORDINATES (ANGSTROEM)
---------------------------------
  Li    -3.462852    2.967406   -1.682964
  F     -1.758464    5.866150   -0.755616
  O     -0.983372    3.711514    0.167289
  P     -2.497253    4.571568   -0.167231
  F     -3.756270    5.497034    0.408701
  O     -1.902793    4.226702    1.281382

----------------------------
CARTESIAN COORDINATES (A.U.)
----------------------------
  NO LB      ZA    FRAG     MASS         X           Y           Z
   0 Li    3.0000    0     6.941   -6.543842    5.607584   -3.180341
   1 F     9.0000    0    18.998   -3.323016   11.085418   -1.427907
   2 O     8.0000    0    15.999   -1.858303    7.013744    0.316131
   3 P    15.0000    0    30.974   -4.719124    8.639012   -0.316021
   4 F     9.0000    0    18.998   -7.098322   10.387889    0.772334
   5 O     8.0000    0    15.999   -3.595757    7.987310    2.421461

--------------------------------
INTERNAL COORDINATES (ANGSTROEM)
--------------------------------
 Li     0   0   0     0.000000000000     0.00000000     0.00000000
 F      1   0   0     3.488213364021     0.00000000     0.00000000
 O      2   1   0     2.468801751731    61.80483334     0.00000000
 P      2   1   3     1.602481754440    36.96600275   307.15093892
 F      4   2   1     1.665325735505    91.52295219   250.00071985
 O      3   2   1     1.533609187856    77.88721991   264.65855778

---------------------------
INTERNAL COORDINATES (A.U.)
---------------------------
 Li     0   0   0     0.000000000000     0.00000000     0.00000000
 F      1   0   0     6.591767954683     0.00000000     0.00000000
 O      2   1   0     4.665359189717    61.80483334     0.00000000
 P      2   1   3     3.028251650498    36.96600275   307.15093892
 F      4   2   1     3.147009563875    91.52295219   250.00071985
 O      3   2   1     2.898101361513    77.88721991   264.65855778

--------------------------------------------------------------------------
WARNING: There was an error initializing an OpenFabrics device.

  Local host:   ga00
  Local device: mlx5_0
--------------------------------------------------------------------------


           ************************************************************
           *        Program running with 28 parallel MPI-processes    *
           *              working on a common directory               *
           ************************************************************
------------------------------------------------------------------------------
                   ___                                                        
                  /   \      - P O W E R E D   B Y -                         
                 /     \                                                     
                 |  |  |   _    _      __       _____    __    __             
                 |  |  |  | |  | |    /  \     |  _  \  |  |  /  |          
                  \  \/   | |  | |   /    \    | | | |  |  | /  /          
                 / \  \   | |__| |  /  /\  \   | |_| |  |  |/  /          
                |  |  |   |  __  | /  /__\  \  |    /   |      \           
                |  |  |   | |  | | |   __   |  |    \   |  |\   \          
                \     /   | |  | | |  |  |  |  | |\  \  |  | \   \       
                 \___/    |_|  |_| |__|  |__|  |_| \__\ |__|  \__/        
                                                                              
                      - O R C A' S   B I G   F R I E N D -                    
                                      &                                       
                       - I N T E G R A L  F E E D E R -                       
                                                                              
 v1 FN, 2020, v2 2021, v3 2022-2024                                           
------------------------------------------------------------------------------


----------------------
SHARK INTEGRAL PACKAGE
----------------------

Number of atoms                             ...      6
Number of basis functions                   ...    175
Number of shells                            ...     65
Maximum angular momentum                    ...      3
Integral batch strategy                     ... SHARK/LIBINT Hybrid
RI-J (if used) integral strategy            ... SPLIT-RIJ (Revised 2003 algorithm where possible)
Printlevel                                  ...      1
Contraction scheme used                     ... SEGMENTED contraction
Prescreening option                         ... SCHWARTZ
   Thresh                                   ... 2.500e-11
   Tcut                                     ... 2.500e-12
   Tpresel                                  ... 2.500e-12 
Coulomb Range Separation                    ... NOT USED
Exchange Range Separation                   ... NOT USED
Multipole approximations                    ... NOT USED
Finite Nucleus Model                        ... NOT USED
CABS basis                                  ... NOT available
Auxiliary Coulomb fitting basis             ... AVAILABLE
   # of basis functions in Aux-J            ...    296
   # of shells in Aux-J                     ...     92
   Maximum angular momentum in Aux-J        ...      4
Auxiliary J/K fitting basis                 ... NOT available
Auxiliary Correlation fitting basis         ... NOT available
Auxiliary 'external' fitting basis          ... NOT available

Checking pre-screening integrals            ... done (  0.0 sec) Dimension = 65
Check shell pair data                       ... done (  0.0 sec)
Shell pair information
Shell pair cut-off parameter TPreSel        ...   2.5e-12
Total number of shell pairs                 ...      2145
Shell pairs after pre-screening             ...      1953
Total number of primitive shell pairs       ...      7521
Primitive shell pairs kept                  ...      5090
          la=0 lb=0:    391 shell pairs
          la=1 lb=0:    551 shell pairs
          la=1 lb=1:    204 shell pairs
          la=2 lb=0:    268 shell pairs
          la=2 lb=1:    194 shell pairs
          la=2 lb=2:     54 shell pairs
          la=3 lb=0:    133 shell pairs
          la=3 lb=1:     95 shell pairs
          la=3 lb=2:     48 shell pairs
          la=3 lb=3:     15 shell pairs

Calculating one electron integrals          ... done (  0.0 sec)
Calculating RI/J V-Matrix + Cholesky decomp.... done (  0.0 sec)
Calculating Nuclear repulsion               ... done (  0.0 sec) ENN=    286.454209234349 Eh

Diagonalization of the overlap matrix:
Smallest eigenvalue                        ... 2.272e-03
Time for diagonalization                   ...    0.002 sec
Threshold for overlap eigenvalues          ... 1.000e-07
Number of eigenvalues below threshold      ... 0
Time for construction of square roots      ...    0.002 sec
Total time needed                          ...    0.005 sec

-------------------
DFT GRID GENERATION
-------------------

General Integration Accuracy     IntAcc      ... 4.388
Radial Grid Type                 RadialGrid  ... OptM3 with GC (2021)
Angular Grid (max. ang.)         AngularGrid ... 4 (Lebedev-302)
Angular grid pruning method      GridPruning ... 4 (adaptive)
Weight generation scheme         WeightScheme... mBecke (2022)
Basis function cutoff            BFCut       ... 1.0000e-11
Integration weight cutoff        WCut        ... 1.0000e-14
Partially contracted basis set               ... off
Rotationally invariant grid construction     ... off
Angular grids for H and He will be reduced by one unit

Total number of grid points                  ...    37838
Total number of batches                      ...      594
Average number of points per batch           ...       63
Average number of grid points per atom       ...     6306

--------------------
COSX GRID GENERATION
--------------------

GRIDX 1
-------
General Integration Accuracy     IntAcc      ... 3.816
Radial Grid Type                 RadialGrid  ... OptM3 with GC (2021)
Angular Grid (max. ang.)         AngularGrid ... 1 (Lebedev-50)
Angular grid pruning method      GridPruning ... 4 (adaptive)
Weight generation scheme         WeightScheme... mBecke (2022)
Basis function cutoff            BFCut       ... 1.0000e-11
Integration weight cutoff        WCut        ... 1.0000e-14
Partially contracted basis set               ... on
Rotationally invariant grid construction     ... off
Angular grids for H and He will be reduced by one unit

Total number of grid points                  ...     5807
Total number of batches                      ...       49
Average number of points per batch           ...      118
Average number of grid points per atom       ...      968
UseSFitting                                  ... on

GRIDX 2
-------
General Integration Accuracy     IntAcc      ... 4.020
Radial Grid Type                 RadialGrid  ... OptM3 with GC (2021)
Angular Grid (max. ang.)         AngularGrid ... 2 (Lebedev-110)
Angular grid pruning method      GridPruning ... 4 (adaptive)
Weight generation scheme         WeightScheme... mBecke (2022)
Basis function cutoff            BFCut       ... 1.0000e-11
Integration weight cutoff        WCut        ... 1.0000e-14
Partially contracted basis set               ... on
Rotationally invariant grid construction     ... off
Angular grids for H and He will be reduced by one unit

Total number of grid points                  ...    11259
Total number of batches                      ...       90
Average number of points per batch           ...      125
Average number of grid points per atom       ...     1876
UseSFitting                                  ... on

GRIDX 3
-------
General Integration Accuracy     IntAcc      ... 4.338
Radial Grid Type                 RadialGrid  ... OptM3 with GC (2021)
Angular Grid (max. ang.)         AngularGrid ... 3 (Lebedev-194)
Angular grid pruning method      GridPruning ... 4 (adaptive)
Weight generation scheme         WeightScheme... mBecke (2022)
Basis function cutoff            BFCut       ... 1.0000e-11
Integration weight cutoff        WCut        ... 1.0000e-14
Partially contracted basis set               ... on
Rotationally invariant grid construction     ... off
Angular grids for H and He will be reduced by one unit

Total number of grid points                  ...    25701
Total number of batches                      ...      205
Average number of points per batch           ...      125
Average number of grid points per atom       ...     4284
UseSFitting                                  ... on
Initializing property integral containers    ... done (  0.0 sec)

SHARK setup successfully completed in   0.4 seconds

Maximum memory used throughout the entire STARTUP-calculation: 15.5 MB
[ga00:4077339] 27 more processes have sent help message help-mpi-btl-openib.txt / error in device init
[ga00:4077339] Set MCA parameter "orte_base_help_aggregate" to 0 to see all help / error messages
--------------------------------------------------------------------------
WARNING: There was an error initializing an OpenFabrics device.

  Local host:   ga00
  Local device: mlx5_0
--------------------------------------------------------------------------


           ************************************************************
           *        Program running with 28 parallel MPI-processes    *
           *              working on a common directory               *
           ************************************************************
Occupation numbers will be reassigned to an Aufbau configuration
             **** ENERGY FILE WAS UPDATED (input.en.tmp) ****
Finished Guess after   0.6 sec
Maximum memory used throughout the entire GUESS-calculation: 10.0 MB
[ga00:4077461] 27 more processes have sent help message help-mpi-btl-openib.txt / error in device init
[ga00:4077461] Set MCA parameter "orte_base_help_aggregate" to 0 to see all help / error messages
--------------------------------------------------------------------------
WARNING: There was an error initializing an OpenFabrics device.

  Local host:   ga00
  Local device: mlx5_0
--------------------------------------------------------------------------


           ************************************************************
           *        Program running with 28 parallel MPI-processes    *
           *              working on a common directory               *
           ************************************************************
----------------------------------------D-I-I-S--------------------------------------------
Iteration    Energy (Eh)           Delta-E    RMSDP     MaxDP     DIISErr   Damp  Time(sec)
-------------------------------------------------------------------------------------------
               ***  Starting incremental Fock matrix formation  ***
    1    -699.0077087625716104     0.00e+00  6.99e-05  2.87e-03  4.54e-03  0.700   0.2
    2    -699.0078153623444450    -1.07e-04  6.55e-05  2.56e-03  3.35e-03  0.700   0.1
                               ***Turning on AO-DIIS***
                              *** Initializing SOSCF ***
---------------------------------------S-O-S-C-F--------------------------------------
Iteration    Energy (Eh)           Delta-E    RMSDP     MaxDP     MaxGrad    Time(sec)
--------------------------------------------------------------------------------------
    3    -699.0078987426343247    -8.34e-05  1.81e-04  6.88e-03  2.51e-03     0.1
               *** Restarting incremental Fock matrix formation ***
    4    -699.0081110545593219    -2.12e-04  4.45e-05  9.26e-04  3.98e-04     0.1
    5    -699.0081097670056351     1.29e-06  2.12e-05  5.97e-04  5.49e-04     0.1
    6    -699.0081166102213501    -6.84e-06  1.07e-05  3.55e-04  1.23e-04     0.1
    7    -699.0081157244460428     8.86e-07  7.34e-06  2.38e-04  2.89e-04     0.1
    8    -699.0081168056940442    -1.08e-06  2.52e-06  1.48e-04  1.39e-05     0.1
    9    -699.0081168024009912     3.29e-09  1.28e-06  6.47e-05  1.79e-05     0.1
                 **** Energy Check signals convergence ****

               *****************************************************
               *                     SUCCESS                       *
               *           SCF CONVERGED AFTER   9 CYCLES          *
               *****************************************************

Recomputing exchange energy using gridx3       ... done (    0.160 sec)
Old exchange energy                            :    -12.212919477 Eh
New exchange energy                            :    -12.212920372 Eh
Exchange energy change after final integration :     -0.000000895 Eh
Total energy after final integration           :   -699.008117697 Eh
             **** ENERGY FILE WAS UPDATED (input.en.tmp) ****

----------------
TOTAL SCF ENERGY
----------------

Total Energy       :       -699.00811769736515 Eh          -19020.97789 eV

Components:
Nuclear Repulsion  :        286.45420923434932 Eh            7794.81531 eV
Electronic Energy  :       -985.46232603675026 Eh          -26815.79318 eV
One Electron Energy:      -1540.98242244883613 Eh          -41932.26351 eV
Two Electron Energy:        555.52009641208588 Eh           15116.47033 eV

Virial components:
Potential Energy   :      -1396.05873477095838 Eh          -37988.68948 eV
Kinetic Energy     :        697.05061707359312 Eh           18967.71159 eV
Virial Ratio       :          2.00280826180456

DFT components:
N(Alpha)           :       25.999989598119 electrons
N(Beta)            :       25.999989598119 electrons
N(Total)           :       51.999979196237 electrons
E(X)               :      -48.648060449267 Eh       
E(C)               :       -2.327462868286 Eh       
E(XC)              :      -50.975523317553 Eh       

---------------
SCF CONVERGENCE
---------------

  Last Energy change         ...   -3.2931e-09  Tolerance :   1.0000e-08
  Last MAX-Density change    ...    6.4695e-05  Tolerance :   1.0000e-07
  Last RMS-Density change    ...    1.2805e-06  Tolerance :   5.0000e-09
[...]
           *        Program running with 28 parallel MPI-processes    *
           *              working on a common directory               *
           ************************************************************
----------------------------------------D-I-I-S--------------------------------------------
Iteration    Energy (Eh)           Delta-E    RMSDP     MaxDP     DIISErr   Damp  Time(sec)
-------------------------------------------------------------------------------------------
               ***  Starting incremental Fock matrix formation  ***
                              *** Initializing SOSCF ***
---------------------------------------S-O-S-C-F--------------------------------------
Iteration    Energy (Eh)           Delta-E    RMSDP     MaxDP     MaxGrad    Time(sec)
--------------------------------------------------------------------------------------
    1    -699.0536520235928037     0.00e+00  1.89e-05  3.30e-04  8.18e-05     0.2
               *** Restarting incremental Fock matrix formation ***
    2    -699.0536557953337251    -3.77e-06  9.06e-06  1.50e-04  7.52e-05     0.1
    3    -699.0536562378197232    -4.42e-07  4.25e-06  1.06e-04  3.22e-05     0.1
    4    -699.0536562145493917     2.33e-08  2.35e-06  5.43e-05  4.16e-05     0.1
    5    -699.0536562752022292    -6.07e-08  8.02e-07  2.34e-05  8.58e-06     0.1
    6    -699.0536562697252521     5.48e-09  5.13e-07  1.63e-05  2.15e-05     0.1
                 **** Energy Check signals convergence ****

               *****************************************************
               *                     SUCCESS                       *
               *           SCF CONVERGED AFTER   6 CYCLES          *
               *****************************************************

Recomputing exchange energy using gridx3       ... done (    0.166 sec)
Old exchange energy                            :    -12.216384208 Eh
New exchange energy                            :    -12.216440093 Eh
Exchange energy change after final integration :     -0.000055885 Eh
Total energy after final integration           :   -699.053712155 Eh
             **** ENERGY FILE WAS UPDATED (input.en.tmp) ****

----------------
TOTAL SCF ENERGY
----------------

Total Energy       :       -699.05371215501339 Eh          -19022.21858 eV

Components:
Nuclear Repulsion  :        279.37317649126766 Eh            7602.13062 eV
Electronic Energy  :       -978.42683276099297 Eh          -26624.34768 eV
One Electron Energy:      -1526.19211688886753 Eh          -41529.79883 eV
Two Electron Energy:        547.76528412787457 Eh           14905.45116 eV

Virial components:
Potential Energy   :      -1396.23275105208018 Eh          -37993.42470 eV
Kinetic Energy     :        697.17903889706679 Eh           18971.20613 eV
Virial Ratio       :          2.00268894093677

DFT components:
N(Alpha)           :       26.000022522199 electrons
N(Beta)            :       26.000022522199 electrons
N(Total)           :       52.000045044398 electrons
E(X)               :      -48.654061872598 Eh       
E(C)               :       -2.327400092284 Eh       
E(XC)              :      -50.981461964882 Eh       

---------------
SCF CONVERGENCE
---------------

  Last Energy change         ...   -5.4770e-09  Tolerance :   1.0000e-08
  Last MAX-Density change    ...    1.6279e-05  Tolerance :   1.0000e-07
  Last RMS-Density change    ...    5.1296e-07  Tolerance :   5.0000e-09
  Last DIIS Error            ...    5.1420e-04  Tolerance :   5.0000e-07
  Last Orbital Gradient      ...    2.1516e-05  Tolerance :   1.0000e-05
  Last Orbital Rotation      ...    1.6448e-05  Tolerance :   1.0000e-05


Total SCF time: 0 days 0 hours 0 min 1 sec 
Finished LeanSCF after   1.8 sec

Maximum memory used throughout the entire LEANSCF-calculation: 18.4 MB
[ga00:4109581] 27 more processes have sent help message help-mpi-btl-openib.txt / error in device init
[ga00:4109581] Set MCA parameter "orte_base_help_aggregate" to 0 to see all help / error messages


-------------------------------------------------------------------------------
                          DFT DISPERSION CORRECTION                            
                                                                               
                              DFTD3 V3.1  Rev 1                                
                          USING Becke-Johnson damping                          
-------------------------------------------------------------------------------
-------------------------   ----------------
Dispersion correction           -0.007789160
-------------------------   ----------------


-------------------------   --------------------
FINAL SINGLE POINT ENERGY      -699.061501314642
-------------------------   --------------------

--------------------------------------------------------------------------
WARNING: There was an error initializing an OpenFabrics device.

  Local host:   ga00
  Local device: mlx5_0
--------------------------------------------------------------------------


           ************************************************************
           *        Program running with 28 parallel MPI-processes    *
           *              working on a common directory               *
           ************************************************************
------------------------------------------------------------------------------
                         ORCA SCF GRADIENT CALCULATION
------------------------------------------------------------------------------

Nuc. rep. gradient        (SHARK) ... done (  0.0 sec)
HCore & Overlap gradient  (SHARK) ... done (  0.0 sec)
Split-RIJ-J gradient      (SHARK) ... done (  0.1 sec)
COSX-gradient                     ... done (  0.6 sec)
XC gradient                       ... done (  0.1 sec)
Dispersion correction             ... done (  0.1 sec)

-------------------
DISPERSION GRADIENT
-------------------

   1   Li  :    0.000046231   -0.000469214    0.000018629
   2   F   :    0.000087202    0.000214091    0.000022983
   3   O   :    0.000083395   -0.000178323   -0.000071878
   4   P   :   -0.000074935    0.000359518   -0.000038365
   5   F   :   -0.000140352    0.000157524    0.000065221
   6   O   :   -0.000001541   -0.000083596    0.000003410

Difference to translation invariance:
           :    0.0000000000    0.0000000000    0.0000000000

Difference to rotation invariance:
           :    0.0000000000    0.0000000000    0.0000000000

Norm of the Dispersion gradient    ...    0.0007159907
RMS gradient                       ...    0.0001687606
MAX gradient                       ...    0.0004692141

------------------
CARTESIAN GRADIENT
------------------

   1   Li  :   -0.000023159   -0.000011284   -0.000048181
   2   F   :    0.000010361   -0.000000980    0.000035485
   3   O   :    0.000013161    0.000008619   -0.000037314
   4   P   :    0.000015982    0.000011771    0.000087577
   5   F   :    0.000021900   -0.000017038   -0.000015262
   6   O   :   -0.000038246    0.000008911   -0.000022304

Difference to translation invariance:
           :    0.0000000000   -0.0000000000    0.0000000000

Difference to rotation invariance:
           :    0.0005690459   -0.0000018660   -0.0001897405

Norm of the Cartesian gradient     ...    0.0001307614
RMS gradient                       ...    0.0000308208
MAX gradient                       ...    0.0000875766

-------
TIMINGS
-------

Total SCF gradient time     ....        0.846 sec

Densities                   ....       0.001 sec  (  0.1%)
One electron gradient       ....       0.017 sec  (  2.0%)
RI-J Coulomb gradient       ....       0.100 sec  ( 11.8%)
COSX gradient               ....       0.592 sec  ( 70.0%)
XC gradient                 ....       0.078 sec  (  9.2%)

Maximum memory used throughout the entire SCFGRAD-calculation: 28.5 MB
[ga00:4109709] 27 more processes have sent help message help-mpi-btl-openib.txt / error in device init
[ga00:4109709] Set MCA parameter "orte_base_help_aggregate" to 0 to see all help / error messages
------------------------------------------------------------------------------
                         ORCA GEOMETRY RELAXATION STEP
------------------------------------------------------------------------------

Reading the OPT-File                    .... done
Getting information on internals        .... done
Copying old internal coords+grads       .... done
Making the new internal coordinates     .... (2022 redundants) done
Validating the new internal coordinates .... (2022 redundants) done
Calculating the B-matrix                .... done
Calculating the G,G- and P matrices     .... done
Transforming gradient to internals      .... done
Projecting the internal gradient        .... done
Number of atoms                         ....   6
Number of internal coordinates          ....  24
Current Energy                          ....  -699.061501315 Eh
Current gradient norm                   ....     0.000130761 Eh/bohr
Maximum allowed component of the step   ....  0.300
Current trust radius                    ....  0.138
Updating the Hessian (BFGS)             .... done
Forming the augmented Hessian           .... done
Diagonalizing the augmented Hessian     .... done
Last element of RFO vector              ....  0.999995372
Lowest eigenvalues of augmented Hessian:
 -0.000000052  0.003373447  0.010111919  0.015347032  0.039477557
Length of the computed step             ....  0.003042476
The final length of the internal step   ....  0.003042476
Converting the step to Cartesian space:
 Initial RMS(Int)=    0.0006210428
Transforming coordinates:
 Iter   0:  RMS(Cart)=    0.0008475762 RMS(Int)=    0.0006198879
done
Storing new coordinates                 .... done
The predicted energy change is          ....    -0.000000026
Previously predicted energy change      ....    -0.000000159
Actually observed energy change         ....    -0.000000089
Ratio of predicted to observed change   ....     0.562363358
New trust radius                        ....     0.138271605

                                .--------------------.
          ----------------------|Geometry convergence|-------------------------
          Item                value                   Tolerance       Converged
          ---------------------------------------------------------------------
          Energy change      -0.0000000892            0.0000010000      YES
          RMS gradient        0.0000136324            0.0000300000      YES
          MAX gradient        0.0000382051            0.0001000000      YES
          RMS step            0.0006210428            0.0006000000      NO
          MAX step            0.0018301922            0.0010000000      NO
          ........................................................
          Max(Bonds)      0.0007      Max(Angles)    0.05
          Max(Dihed)        0.10      Max(Improp)    0.00
          ---------------------------------------------------------------------

The optimization has not yet converged - more geometry cycles are needed


    ---------------------------------------------------------------------------
                         Redundant Internal Coordinates
                            (Angstroem and degrees)

        Definition                    Value    dE/dq     Step     New-Value
    ----------------------------------------------------------------------------
     1. B(P   3,F   1)                1.5911 -0.000002  0.0000    1.5911   
     2. B(P   3,O   2)                2.3179 -0.000003 -0.0003    2.3176   
     3. B(P   3,Li  0)                3.2902  0.000012 -0.0007    3.2895   
     4. B(F   4,P   3)                1.6105 -0.000038  0.0001    1.6106   
     5. B(O   5,P   3)                1.6326 -0.000018  0.0000    1.6326   
     6. B(O   5,O   2)                1.5359  0.000020 -0.0000    1.5359   
     7. A(P   3,O   2,O   5)           44.64 -0.000005    0.01     44.65   
     8. A(Li  0,P   3,F   1)          109.55  0.000015    0.03    109.58   
     9. A(Li  0,P   3,F   4)          108.25 -0.000003    0.01    108.26   
    10. A(F   1,P   3,F   4)           96.12  0.000010   -0.01     96.11   
    11. A(F   1,P   3,O   2)           92.04  0.000010   -0.01     92.04   
    12. A(Li  0,P   3,O   2)           29.88  0.000011    0.01     29.89   
    13. A(Li  0,P   3,O   5)           18.34 -0.000008    0.05     18.38   
    14. A(F   1,P   3,O   5)           99.88  0.000021   -0.01     99.87   
    15. A(O   2,P   3,O   5)           41.38  0.000007    0.01     41.39   
    16. A(F   4,P   3,O   5)           94.55  0.000005   -0.00     94.55   
    17. A(O   2,P   3,F   4)          135.92  0.000012    0.00    135.93   
    18. A(O   2,O   5,P   3)           93.98 -0.000002   -0.02     93.97   
    19. D(F   4,P   3,O   2,O   5)      1.69 -0.000009    0.02      1.71   
    20. D(Li  0,P   3,O   2,O   5)    -24.94  0.000018   -0.10    -25.04   
    21. D(F   1,P   3,O   2,O   5)    102.66  0.000019    0.00    102.66   
    22. D(O   2,O   5,P   3,F   4)   -178.82 -0.000007    0.01   -178.80   
    23. D(O   2,O   5,P   3,F   1)    -81.79  0.000006    0.01    -81.78   
    24. D(O   2,O   5,P   3,Li  0)     41.88  0.000003    0.09     41.97   
    ----------------------------------------------------------------------------

Geometry step timings:
Preparation and reading OPT file:      0.000 s (22.125 %)
Internal coordinates            :      0.000 s ( 2.191 %)
B/P matrices and projection     :      0.000 s (15.115 %)
Hessian update/contruction      :      0.000 s (12.815 %)
Making the step                 :      0.000 s (10.405 %)
Converting the step to Cartesian:      0.000 s ( 2.410 %)
Storing new data                :      0.000 s ( 1.643 %)
Checking convergence            :      0.000 s ( 0.986 %)
Final printing                  :      0.000 s (32.092 %)
Total time                      :      0.001 s
--------------------------------------------------------------------------
WARNING: There was an error initializing an OpenFabrics device.

  Local host:   ga00
  Local device: mlx5_0
--------------------------------------------------------------------------
[ga00:4109837] 27 more processes have sent help message help-mpi-btl-openib.txt / error in device init
[ga00:4109837] Set MCA parameter "orte_base_help_aggregate" to 0 to see all help / error messages

Time for energy+gradient        :      6.718 s
Time for complete geometry iter :      7.724 s




    ----------------------------------------------------------------------------
                                  WARNING !!!
       The optimization did not converge but reached the maximum number of
       optimization cycles.
       Please check your results very carefully.
    ----------------------------------------------------------------------------



--------------------------------
SUGGESTED CITATIONS FOR THIS RUN
--------------------------------

Below you find a list of papers that are relevant to this ORCA run
We neither can nor want to force you to cite these papers, but we appreciate if you do
You receive ORCA, which is the product of decades of hard work by many enthusiastic individuals, for free
The only thing we kindly ask in return is that you cite our papers,
We deeply appreciate it, if you show your appreciation for ORCA by not just citing the generic ORCA reference.

Please note that relegating all ORCA citations to the supporting information does *not* help us.
SI sections are not indexed - citations you put there will not count into any citation statistics
But we need these citations in order to attract the funding resources that allow us to do what we are doing

Therefore, if you are a happy ORCA user, please consider citing a few of the papers listed below in the main body of your paper

In addition to the list printed below, the program has created the file input.bibtex that contains the list in bibtex format
You can import this file easily into all common literature databanks and citation aid programs


List of essential papers. We consider these as the minimum necessary citations

  1. Neese,F.
     Software update: the ORCA program system, version 5.0
     WIRES Comput. Molec. Sci., 2022 12(1)e1606
     doi.org/10.1002/wcms.1606

List of papers to cite with high priority. The work reported in these papers was absolutely
necessary for this run to complete.
Our perspective: the developers of density functionals and basis sets usually get cited in chemistry papers
Good! But without the algorithms to do something with them, the functionals or basis sets would not do anything.
Hence, in our opinion, the algorithm design and method developments papers are equally worthy of getting cited

  1. Neese,F.
     An improvement of the resolution of the identity approximation for the formation of the Coulomb matrix
     J. Comp. Chem., 2003 24(14)1740-1747
     doi.org/10.1002/jcc.10318
  2. Neese,F.; Wennmohs,F.; Hansen,A.; Becker,U.
     Efficient, approximate and parallel Hartree-Fock and hybrid DFT calculations. A 'chain-of-spheres' algorithm for the Hartree-Fock exchange
     Chem. Phys., 2009 356(1-3)98-109
     doi.org/10.1016/j.chemphys.2008.10.036
  3. Helmich-Paris,B.; de Souza,B.; Neese,F.; Izsák,R.
     An improved chain of spheres for exchange algorithm
     J. Chem. Phys., 2021 155 104109
     doi.org/doi: 10.1063/5.0058766.
  4. Neese,F.
     The SHARK Integral Generation and Digestion System
     J. Comp. Chem., 2022  1-16
     doi.org/10.1002/jcc.26942
  5. Grimme,S.; Antony,J.; Ehrlich,S.; Krieg,H.
     A consistent and accurate ab initio parametrization of density functional dispersion correction (DFT-D) for the 94 elements H-Pu
     J. Chem. Phys., 2010 132 154104
     doi.org/10.1063/1.3382344
  6. Grimme,S.; Ehrlich,S.; Goerigk,L.
     Effect of the damping function in dispersion corrected density functional theory
     J. Comput. Chem., 2011 32(7)1456-1465
     doi.org/10.1002/jcc.21759

List of suggested additional citations. These are papers that are important in the 'surrounding' of 
of this run, or papers that preceded the highly important papers. If you like your results we are grateful for a citation.

  1. Izsak,R.; Neese,F.
     An overlap fitted chain of spheres exchange method
     J. Chem. Phys., 2011 135 144105
     doi.org/10.1063/1.3646921
  2. Izsak,R.; Hansen,A.; Neese,F.
     The resolution of identity and chain of spheres approximations for the LPNO-CCSD singles Fock term
     Molec. Phys., 2012 110 2413-2417
     doi.org/10.1080/00268976.2012.687466
  3. Neese,F.
     The ORCA program system
     WIRES Comput. Molec. Sci., 2012 2(1)73-78
     doi.org/10.1002/wcms.81
  4. Izsak,R.; Neese,F.; Klopper,W.
     Robust fitting techniques in the chain of spheres approximation to the Fock exchange: The role of the complementary space
     J. Chem. Phys., 2013 139 
     doi.org/10.1063/1.4819264
  5. Neese,F.
     Software update: the ORCA program system, version 4.0
     WIRES Comput. Molec. Sci., 2018 8(1)1-6
     doi.org/10.1002/wcms.1327
  6. Neese,F.; Wennmohs,F.; Becker,U.; Riplinger,C.
     The ORCA quantum chemistry program package
     J. Chem. Phys., 2020 152 Art. No. L224108
     doi.org/10.1063/5.0004608

List of optional additional citations

  1. Neese,F.
     Approximate second-order SCF convergence for spin unrestricted wavefunctions
     Chem. Phys. Lett., 2000 325(1-3)93-98
     doi.org/10.1016/s0009-2614(00)00662-x

Timings for individual modules:

Sum of individual times          ...      345.217 sec (=   5.754 min)
Startup calculation              ...       70.104 sec (=   1.168 min)  20.3 %
SCF iterations                   ...      179.138 sec (=   2.986 min)  51.9 %
SCF Gradient evaluation          ...       95.906 sec (=   1.598 min)  27.8 %
Geometry relaxation              ...        0.070 sec (=   0.001 min)   0.0 %
                             ****ORCA TERMINATED NORMALLY****
TOTAL RUN TIME: 0 days 0 hours 6 minutes 36 seconds 516 msec
