[Molden Format]
[Title]
 Molden file created by orca_2mkl for BaseName=input

[Atoms] AU
Li   1   3         -6.9198802302         6.1418785866        -1.8702393360 
F    2   9         -3.0035809083        11.3911758113        -0.8807442107 
P    3  15         -4.1274203614         8.8352025206         0.0340725632 
O    4   8         -3.3807057324         6.7035369438        -1.6626817137 
O    5   8         -6.9331276579         8.9801914659         0.3285660726 
F    6   9         -2.7736496779         8.6689727536         2.6366856661 
[GTO]
  1 0
s   6 1.0 
     6269.2628010000         0.2601467437
      940.3161243100         0.4858358392
      214.2210752800         0.8341193254
       60.7598401840         1.3244574254
       19.9151520320         1.8815769487
        7.3171509797         2.1952005029
s   2 1.0 
        2.9724674216         0.7262181058
        1.2639852314         0.4944919164
s   1 1.0 
        0.5142748995         0.4328192700
s   1 1.0 
        0.0770308859         0.1042098478
s   1 1.0 
        0.0289388964         0.0500059366
p   1 1.0 
        0.4000000000         0.4534350390
p   1 1.0 
        0.0600000000         0.0423281367
p   1 1.0 
        3.3270000000         6.4048076130

  2 0
s   6 1.0 
    35479.1004410000         1.0351654302
     5318.4728983000         1.9331170875
     1210.4810975000         3.3081679067
      342.8551814000         5.1904360265
      112.0194318100         7.1453715076
       40.7147402480         7.7853597648
s   2 1.0 
       16.0396781110         3.6156464853
        6.5038186740         1.1649992517
s   1 1.0 
        1.5440477509         0.9872011158
s   1 1.0 
        0.6122345286         0.4932856214
s   1 1.0 
        0.2402797970         0.2445952588
p   4 1.0 
       80.2339004830         4.2174077507
       18.5940107430         4.7174264054
        5.6867902653         4.0849101385
        1.9511006294         2.2998974220
p   1 1.0 
        0.6697021130         0.8635593174
p   1 1.0 
        0.2165130041         0.2105208284
d   1 1.0 
        3.1070000000        20.7284714039
d   1 1.0 
        0.8550000000         2.1672588463
f   1 1.0 
        1.9170000000        24.6547062912

  3 0
s   7 1.0 
    52426.9992330000         1.3212792146
     7863.2660552000         2.4617576015
     1789.5227333000         4.1682597561
      506.2730016500         6.3159100221
      164.6069854600         7.8855635848
       58.3919187220         6.7611895652
       21.6436632010         2.4503453444
s   3 1.0 
       99.0138376200         1.9732022792
       30.5504398170         3.5685473278
        5.4537087661        -3.0179252192
s   2 1.0 
        2.6503362563         1.0100297906
        1.2726688867         0.2897277443
s   1 1.0 
        0.3164500520         0.3007038377
s   1 1.0 
        0.1141746694         0.1399869058
p   5 1.0 
      472.2721924800        11.4356014241
      111.5888275600        14.8375861284
       35.4459364180        16.0017708610
       12.9907768750        12.8297404423
        5.0486221658         6.5532023278
p   1 1.0 
        1.9934049566         3.3762492844
p   1 1.0 
        0.6652728443         0.8564259801
p   1 1.0 
        0.2551683213         0.2585077297
p   1 1.0 
        0.0903577623         0.0706149932
d   2 1.0 
        3.1200000000         3.8292136668
        0.6480000000         1.2233911243
d   1 1.0 
        0.2180000000         0.1982754514
f   1 1.0 
        0.4520000000         0.9551279577

  4 0
s   6 1.0 
    27032.3826310000         0.8598581479
     4052.3871392000         1.6055305368
      922.3272271000         2.7458778516
      261.2407098900         4.2987674426
       85.3546413510         5.8797663284
       31.0350352450         6.3163983216
s   2 1.0 
       12.2608607280         2.9812147522
        4.9987076005         0.9419559635
s   1 1.0 
        1.1703108158         0.8019291610
s   1 1.0 
        0.4647474099         0.4011648062
s   1 1.0 
        0.1850453636         0.2010799406
p   4 1.0 
       63.2749548010         3.0572017144
       14.6270493790         3.3844839414
        4.4501223456         2.9474262132
        1.5275799647         1.7118271494
p   1 1.0 
        0.5293511794         0.6436057926
p   1 1.0 
        0.1747842127         0.1610897254
d   1 1.0 
        2.3140000000        12.3767310624
d   1 1.0 
        0.6450000000         1.3234257612
f   1 1.0 
        1.4280000000        12.7097950062

  5 0
s   6 1.0 
    27032.3826310000         0.8598581479
     4052.3871392000         1.6055305368
      922.3272271000         2.7458778516
      261.2407098900         4.2987674426
       85.3546413510         5.8797663284
       31.0350352450         6.3163983216
s   2 1.0 
       12.2608607280         2.9812147522
        4.9987076005         0.9419559635
s   1 1.0 
        1.1703108158         0.8019291610
s   1 1.0 
        0.4647474099         0.4011648062
s   1 1.0 
        0.1850453636         0.2010799406
p   4 1.0 
       63.2749548010         3.0572017144
       14.6270493790         3.3844839414
        4.4501223456         2.9474262132
        1.5275799647         1.7118271494
p   1 1.0 
        0.5293511794         0.6436057926
p   1 1.0 
        0.1747842127         0.1610897254
d   1 1.0 
        2.3140000000        12.3767310624
d   1 1.0 
        0.6450000000         1.3234257612
f   1 1.0 
        1.4280000000        12.7097950062

  6 0
s   6 1.0 
    35479.1004410000         1.0351654302
     5318.4728983000         1.9331170875
     1210.4810975000         3.3081679067
      342.8551814000         5.1904360265
      112.0194318100         7.1453715076
       40.7147402480         7.7853597648
s   2 1.0 
       16.0396781110         3.6156464853
        6.5038186740         1.1649992517
s   1 1.0 
        1.5440477509         0.9872011158
s   1 1.0 
        0.6122345286         0.4932856214
s   1 1.0 
        0.2402797970         0.2445952588
p   4 1.0 
       80.2339004830         4.2174077507
       18.5940107430         4.7174264054
        5.6867902653         4.0849101385
        1.9511006294         2.2998974220
p   1 1.0 
        0.6697021130         0.8635593174
p   1 1.0 
        0.2165130041         0.2105208284
d   1 1.0 
        3.1070000000        20.7284714039
d   1 1.0 
        0.8550000000         2.1672588463
f   1 1.0 
        1.9170000000        24.6547062912

[5D]
[7F]
[9G]
[MO]
 Sym=     1a
 Ene= -7.72012023803304E+01
 Spin= Alpha
 Occup= 2.000000
  1       0.000000102231
  2       0.000002847128
  3      -0.000017533884
  4       0.000367791758
  5       0.000185019644
  6       0.000016348470
  7       0.000015755837
  8       0.000011155257
  9       0.000174727757
 10       0.000168456137
 11       0.000119196218
 12      -0.000004377214
 13      -0.000004206665
 14      -0.000002984476
 15      -0.000009379675
 16       0.000038982450
 17      -0.000273106609
 18       0.000280094364
 19       0.001266657870
 20       0.000055609336
 21       0.000142843464
 22      -0.000063979048
 23      -0.000262329011
 24      -0.000658591518
 25       0.000284292603
 26      -0.000227175522
 27      -0.000472197377
 28       0.000134359130
 29       0.000037643668
 30       0.000022150748
 31       0.000054385212
 32       0.000059356761
 33      -0.000063710634
 34      -0.000174868109
 35      -0.000101134444
 36      -0.000247784587
 37      -0.000272870526
 38       0.000295308132
 39      -0.000031217573
 40       0.000024036537
 41       0.000017955711
 42      -0.000037769866
 43       0.000035044092
 44      -0.000066161943
 45      -0.000021517546
 46      -0.998381413167
 47       0.031044327808
 48       0.012120335806
 49      -0.005930187402
 50      -0.005336691209
 51      -0.000042945012
 52      -0.000041449573
 53      -0.000029222815
 54      -0.000030021753
 55      -0.000028834579
 56      -0.000020476115
 57       0.000071900279
 58       0.000069105763
 59       0.000048963207
 60       0.000908257716
 61       0.000876044973
 62       0.000618237757
 63       0.000572974520
 64       0.000552918448
 65       0.000390230139
 66       0.000168833203
 67       0.000135850855
 68      -0.000307570939
 69      -0.000150551134
 70       0.000117829246
 71       0.000449787174
 72       0.000358432090
 73      -0.000820422637
 74      -0.000400484606
 75       0.000309734489
 76      -0.000461215092
 77      -0.000814995806
 78       0.000454296179
 79      -0.000881697726
 80      -0.000161753460
 81      -0.001080742540
 82       0.000168362794
 83      -0.000016730507
 84       0.000066562927
 85      -0.000707351619
 86       0.001766529350
 87       0.002844567830
 88       0.000069409238
 89      -0.000192596612
 90      -0.000153391456
 91      -0.000487663273
 92       0.001423406682
 93       0.001132169669
 94      -0.000231670531
 95       0.000827160614
 96       0.000654882938
 97      -0.000002121700
 98       0.000025241254
 99      -0.000074188867
100       0.000037981498
101       0.000031296673
102       0.000036260807
103      -0.000238834932
104       0.000709288211
105      -0.000391036471
106      -0.000299861636
107      -0.000051424662
108      -0.000012610836
109       0.000063858334
110      -0.000099048867
111      -0.000091678739
112      -0.000054072591
113       0.000048355895
114      -0.000016722652
115       0.000066535267
116      -0.000707327737
117       0.001766982415
118       0.002844821036
119      -0.000253868060
120       0.000014612247
121       0.000027783542
122       0.001871582761
123      -0.000088453404
124      -0.000189973912
125       0.001077152293
126      -0.000011567204
127      -0.000078918693
128       0.000045465369
129       0.000016633974
130      -0.000003904265
131      -0.000078334053
132       0.000007987537
133      -0.000436250385
134      -0.000152788236
135       0.000010951916
136       0.000765318951
137      -0.000068347235
138       0.000039618696
139      -0.000096329962
140      -0.000001060213
141      -0.000023030623
142      -0.000008151347
143      -0.000135578743
144       0.000022852775
145      -0.000009377363
146       0.000038972299
147      -0.000272968234
148       0.000279648878
149       0.001266371523
150       0.000069492066
151      -0.000022199304
152       0.000149201093
153      -0.000325438769
154       0.000091614778
155      -0.000684556310
156      -0.000266587396
157      -0.000004314301
158      -0.000470540795
159      -0.000075975056
160      -0.000078424629
161       0.000012258078
162      -0.000018796586
163       0.000004763670
164       0.000348669531
165       0.000362302637
166      -0.000053694882
167       0.000087366696
168      -0.000020246421
169      -0.000034065943
170      -0.000084537107
171       0.000014520811
172      -0.000025045721
173       0.000001680362
174       0.000014103900
175       0.000003660189
 Sym=     1a
 Ene= -2.47070779660453E+01
 Spin= Alpha
 Occup= 2.000000
  1       0.000015356786
  2      -0.000072655398
  3       0.000151311844
  4      -0.000182318155
  5      -0.000152308442
  6       0.000037200610
  7       0.000034827308
  8       0.000026581445
  9      -0.000135623076
 10      -0.000316300014
 11       0.000119729673
 12      -0.000002347019
 13      -0.000002607820
 14      -0.000001221486
 15      -0.425325939637
 16      -0.648989210509
 17      -0.033371614309
 18       0.020035913602
 19      -0.011249925492
 20       0.000425147017
 21       0.000968466985
 22      -0.000347434409
 23      -0.000655687938
 24      -0.001457909943
 25       0.000494942909
 26       0.000980017007
 27       0.002091027334
 28      -0.000640000020
 29       0.000027828568
 30       0.000015726141
 31       0.000049006442
 32       0.000050474467
 33      -0.000053640990
 34      -0.000069074511
 35      -0.000037775292
 36      -0.000123140130
 37      -0.000127076235
 38       0.000135618129
 39      -0.000029292459
 40       0.000011822089
 41       0.000019952466
 42      -0.000030192128
 43       0.000030115718
 44      -0.000052527275
 45      -0.000016983872
 46      -0.000053567423
 47       0.000163982328
 48       0.000402679348
 49      -0.000665626159
 50       0.007712274524
 51      -0.000029858519
 52      -0.000069536300
 53       0.000026138504
 54       0.000142306292
 55       0.000329442243
 56      -0.000122345420
 57      -0.000155141559
 58      -0.000397024637
 59       0.000176404057
 60      -0.000142073045
 61       0.000152038417
 62      -0.000427231151
 63       0.000461037143
 64       0.001750824619
 65      -0.001177445261
 66       0.000203374309
 67       0.000134427818
 68       0.000295616421
 69       0.000316853549
 70      -0.000325304229
 71      -0.000037293925
 72      -0.000162183331
 73       0.000223155156
 74       0.000193370182
 75      -0.000307167424
 76      -0.000263352576
 77       0.000327743330
 78       0.000090237243
 79      -0.000243792446
 80       0.000397772363
 81      -0.000440012088
 82      -0.000257822465
 83      -0.000002709443
 84       0.000016302885
 85      -0.000122563262
 86       0.000590291405
 87      -0.002491621721
 88      -0.000007610364
 89       0.000025410768
 90       0.000013845339
 91      -0.000002044773
 92      -0.000147068726
 93      -0.000024755918
 94      -0.000017712160
 95      -0.001088741112
 96      -0.000329352766
 97      -0.000011964724
 98       0.000006029134
 99       0.000016008256
100      -0.000016208052
101       0.000000207509
102       0.000093058429
103      -0.000024480715
104      -0.000064710878
105       0.000140364389
106      -0.000017502115
107       0.000017094712
108       0.000021525045
109       0.000020640689
110       0.000008815282
111      -0.000010666838
112       0.000007459285
113      -0.000030800006
114      -0.000002720033
115       0.000016351845
116      -0.000122673697
117       0.000589516009
118      -0.002491156736
119       0.000028947281
120       0.000001850125
121      -0.000006682480
122      -0.000125129059
123      -0.000068487363
124       0.000044288946
125      -0.001019280664
126      -0.000446015504
127       0.000232319593
128      -0.000007748098
129      -0.000006452009
130       0.000003481117
131       0.000016299769
132       0.000017664113
133       0.000060169985
134       0.000064767056
135       0.000017331092
136      -0.000077842246
137      -0.000138451960
138      -0.000002816383
139       0.000020998000
140      -0.000009435213
141       0.000024477411
142       0.000018866612
143      -0.000004098321
144       0.000029354792
145       0.001241348334
146       0.001903393232
147       0.000057768096
148       0.000086051000
149      -0.000880700133
150      -0.000010222989
151      -0.000013234707
152      -0.000003204674
153       0.000037310723
154       0.000000702707
155       0.000065858710
156      -0.000035559635
157      -0.000255370314
158       0.000228249995
159       0.000000498021
160      -0.000008972203
161       0.000015710853
162       0.000014966382
163      -0.000023094562
164      -0.000026822519
165       0.000025604238
166      -0.000007375573
167      -0.000033719630
168       0.000081846903
169       0.000016654181
170       0.000007574613
171      -0.000008108031
172       0.000012781199
173      -0.000014219359
174       0.000012433521
175       0.000007610509
 Sym=     1a
 Ene= -2.47069710032855E+01
 Spin= Alpha
 Occup= 2.000000
  1      -0.000015453336
  2       0.000073108039
  3      -0.000152229456
  4       0.000181576616
  5       0.000153513807
  6      -0.000037431681
  7      -0.000037084158
  8      -0.000024547133
  9       0.000164709081
 10      -0.000025832573
 11       0.000323376372
 12       0.000002440654
 13       0.000002004158
 14       0.000002080910
 15       0.001243548106
 16       0.001888058750
 17       0.000137871230
 18      -0.000204254270
 19       0.000947761453
 20       0.000008369733
 21       0.000001292099
 22       0.000013349242
 23      -0.000028108903
 24      -0.000057407141
 25       0.000015606685
 26       0.000064337529
 27      -0.000166053823
 28       0.000304327571
 29       0.000015752880
 30       0.000023397613
 31      -0.000010077349
 32      -0.000004171822
 33       0.000013486020
 34      -0.000030313455
 35      -0.000076329344
 36      -0.000013186628
 37      -0.000005059581
 38      -0.000047916993
 39      -0.000016650814
 40      -0.000018262144
 41       0.000005110053
 42      -0.000013282911
 43       0.000010308779
 44      -0.000003915570
 45      -0.000005681284
 46       0.000053859767
 47      -0.000164875065
 48      -0.000404842758
 49       0.000669182241
 50      -0.007756294988
 51       0.000036482847
 52      -0.000005386466
 53       0.000070974358
 54      -0.000173512093
 55       0.000024035429
 56      -0.000335783720
 57       0.000195609205
 58      -0.000058096848
 59       0.000412828166
 60       0.000097044976
 61       0.000381514399
 62      -0.000263041819
 63      -0.000668669311
 64       0.000654318947
 65      -0.001938714392
 66       0.000408986785
 67       0.000407717321
 68      -0.000069663373
 69       0.000102859112
 70      -0.000042570721
 71       0.000196397762
 72       0.000303842641
 73      -0.000164832043
 74      -0.000083998492
 75       0.000212410995
 76       0.000293771390
 77       0.000675936508
 78      -0.000090686073
 79       0.000105468955
 80      -0.000095252403
 81      -0.000297102669
 82       0.000019795744
 83       0.000002737166
 84      -0.000016457602
 85       0.000123609473
 86      -0.000593470318
 87       0.002504859014
 88       0.000007088283
 89      -0.000019255174
 90      -0.000021521836
 91       0.000009568043
 92       0.000061686541
 93       0.000135757816
 94       0.000059099464
 95       0.000600443867
 96       0.000968461758
 97      -0.000011279677
 98       0.000000689944
 99      -0.000022268347
100       0.000003699275
101      -0.000007511317
102       0.000121266115
103       0.000021438317
104       0.000128178821
105      -0.000018164646
106       0.000037046824
107       0.000021410548
108      -0.000002648049
109       0.000029827455
110      -0.000019369325
111       0.000016589658
112      -0.000015347317
113      -0.000010402181
114       0.000002726027
115      -0.000016397314
116       0.000123251070
117      -0.000593854888
118       0.002505699958
119      -0.000030001513
120       0.000004129421
121      -0.000000904991
122       0.000133310959
123      -0.000017004257
124       0.000066451698
125       0.001067029072
126      -0.000045278600
127       0.000404366442
128       0.000013941127
129      -0.000015567175
130      -0.000003524061
131      -0.000015817789
132      -0.000000220305
133      -0.000052029640
134       0.000136088105
135       0.000001972404
136       0.000109755327
137      -0.000014745615
138      -0.000037014180
139       0.000005345725
140       0.000002897725
141       0.000010892956
142      -0.000004656228
143      -0.000027233035
144       0.000009688109
145       0.425326060580
146       0.648988946539
147       0.033372328573
148      -0.020037658039
149       0.011257661378
150      -0.000512396814
151       0.000063788408
152      -0.000985846679
153       0.000784392790
154      -0.000068243021
155       0.001475418422
156      -0.001159122186
157       0.000029128999
158      -0.002098932642
159       0.000064107130
160       0.000065788840
161      -0.000014772419
162       0.000012772004
163      -0.000001657597
164      -0.000160726907
165      -0.000165833288
166       0.000037995132
167      -0.000031112139
168       0.000002609955
169       0.000030851921
170       0.000066569762
171      -0.000009456953
172       0.000026519020
173      -0.000004845130
174      -0.000006497445
175       0.000000272889
 Sym=     1a
 Ene= -1.91033835712967E+01
 Spin= Alpha
 Occup= 2.000000
  1       0.000028998556
  2      -0.000176591429
  3       0.000592567174
  4       0.000778856824
  5      -0.000343163223
  6       0.000366524461
  7       0.000235327091
  8       0.000158733354
  9       0.000313455674
 10      -0.000039520124
 11      -0.000050562890
 12       0.000013792989
 13      -0.000006539349
 14      -0.000005964900
 15      -0.000001839013
 16       0.000017125294
 17      -0.000151445327
 18       0.000602357410
 19      -0.002210515572
 20      -0.000021686962
 21      -0.000014146036
 22       0.000027007552
 23       0.000068739001
 24       0.000077343217
 25      -0.000078796162
 26       0.000122754581
 27       0.000842791438
 28       0.000137130943
 29      -0.000010323677
 30       0.000022906371
 31      -0.000018211131
 32       0.000008227552
 33       0.000012214246
 34       0.000051716428
 35      -0.000077177641
 36       0.000043697930
 37       0.000003299331
 38      -0.000044611501
 39       0.000001831658
 40       0.000005173289
 41      -0.000007005770
 42       0.000003245006
 43       0.000005959460
 44       0.000007658181
 45      -0.000001167428
 46      -0.000093622178
 47       0.000263837691
 48       0.000815743332
 49      -0.001676583200
 50       0.008374621647
 51      -0.000013303599
 52       0.000033361163
 53       0.000026679568
 54       0.000092795493
 55      -0.000256586322
 56      -0.000204568918
 57      -0.000126633034
 58       0.000406508143
 59       0.000323486447
 60      -0.001072912149
 61       0.001977425730
 62       0.001594906995
 63       0.000257483146
 64      -0.001622523520
 65      -0.001271417682
 66      -0.000052361609
 67       0.000341522292
 68      -0.000847547053
 69       0.000473010668
 70       0.000432148638
 71      -0.000120063227
 72       0.000511727209
 73      -0.001524555416
 74       0.000907257216
 75       0.000655739487
 76      -0.000305288182
 77       0.000056574692
 78       0.000335074908
 79      -0.000466325536
 80      -0.000615022033
 81      -0.000171791393
 82       0.000222540971
 83      -0.434599233307
 84      -0.638953119173
 85      -0.034802061234
 86       0.024305802687
 87      -0.012536166146
 88       0.000684137397
 89      -0.001234997103
 90      -0.000998594019
 91      -0.001263248111
 92       0.002584909757
 93       0.002079563112
 94       0.001329256237
 95      -0.001727819009
 96      -0.001421812420
 97      -0.000025083997
 98       0.000056077408
 99      -0.000164791046
100       0.000119544447
101       0.000075292099
102       0.000090444088
103      -0.000247783647
104       0.000717788844
105      -0.000487357407
106      -0.000326721864
107      -0.000092829508
108      -0.000039546650
109       0.000086910554
110      -0.000136695408
111      -0.000099650666
112      -0.000085703434
113       0.000040424969
114      -0.020485426027
115      -0.030083480800
116      -0.001841894027
117       0.001834718550
118      -0.004072704506
119      -0.000051698490
120       0.000068458708
121       0.000056292918
122      -0.000073984192
123      -0.000179871045
124      -0.000134417013
125      -0.001465003840
126       0.000705814212
127       0.000640842461
128      -0.000001482875
129       0.000012393928
130      -0.000031687579
131       0.000017176314
132       0.000015444587
133       0.000038751369
134      -0.000003678942
135       0.000089039655
136      -0.000112158735
137      -0.000013757869
138       0.000010151847
139       0.000008227485
140      -0.000000766487
141      -0.000001018414
142       0.000007027300
143       0.000010983507
144       0.000011512326
145      -0.000001845256
146       0.000017210762
147      -0.000151961392
148       0.000602661528
149      -0.002205380492
150      -0.000024489268
151       0.000021089100
152      -0.000018313021
153       0.000078899917
154      -0.000052029128
155       0.000087456324
156       0.000163713677
157       0.000352589420
158       0.000767037322
159       0.000004161403
160       0.000006301494
161      -0.000015318489
162       0.000014487602
163       0.000026063667
164      -0.000037954668
165      -0.000026531712
166       0.000021542723
167      -0.000041872877
168      -0.000090367533
169       0.000003495294
170       0.000003604155
171       0.000000769487
172       0.000006988150
173       0.000006193799
174       0.000008488036
175      -0.000001505923
 Sym=     1a
 Ene= -1.91033615105881E+01
 Spin= Alpha
 Occup= 2.000000
  1       0.000026434058
  2      -0.000160926826
  3       0.000539334463
  4       0.000707933825
  5      -0.000312310333
  6       0.000185917751
  7       0.000308842693
  8       0.000227346346
  9      -0.000142557885
 10       0.000237601765
 11       0.000193392664
 12      -0.000012292287
 13       0.000009925315
 14       0.000008447405
 15      -0.000001676815
 16       0.000015656972
 17      -0.000138107860
 18       0.000548014800
 19      -0.002009793198
 20       0.000012726277
 21      -0.000033408428
 22       0.000006405461
 23      -0.000011414237
 24       0.000117163384
 25      -0.000030184035
 26       0.000685818294
 27       0.000398195505
 28      -0.000197496678
 29       0.000020883057
 30       0.000002567980
 31       0.000008008644
 32      -0.000020789411
 33       0.000017201072
 34      -0.000053578541
 35       0.000004317675
 36      -0.000020491208
 37       0.000047450094
 38      -0.000083762550
 39       0.000000040582
 40       0.000005684097
 41      -0.000004598397
 42       0.000002795574
 43       0.000000944939
 44       0.000008088656
 45      -0.000006274649
 46      -0.000085200635
 47       0.000240080039
 48       0.000742378594
 49      -0.001526329609
 50       0.007622893857
 51       0.000045695379
 52      -0.000006692046
 53      -0.000008175437
 54      -0.000348677731
 55       0.000044112872
 56       0.000056783706
 57       0.000547003030
 58      -0.000054263714
 59      -0.000077400580
 60       0.002792048929
 61      -0.000616093946
 62      -0.000658321892
 63      -0.002106673556
 64       0.000022464044
 65       0.000155322117
 66       0.000534521807
 67       0.000204892035
 68       0.000088967570
 69      -0.000994065648
 70       0.000108054267
 71       0.000956605466
 72       0.000272221177
 73       0.000187056312
 74      -0.001780694509
 75       0.000073977792
 76       0.000399767281
 77      -0.000498884115
 78      -0.000111967264
 79       0.000014322839
 80       0.000101744253
 81      -0.000670609284
 82       0.000148870521
 83       0.020477627674
 84       0.030141063459
 85       0.001437505558
 86      -0.000452966067
 87      -0.002908598971
 88       0.000031663899
 89       0.000090622557
 90       0.000068075796
 91      -0.000090969518
 92      -0.000338172896
 93      -0.000255707530
 94       0.001054682004
 95      -0.000827301309
 96      -0.000708773963
 97       0.000022153208
 98       0.000003204266
 99       0.000015238986
100      -0.000046308388
101      -0.000002013535
102      -0.000065866215
103       0.000037332411
104      -0.000120771485
105       0.000168847477
106       0.000064079946
107       0.000008869415
108       0.000007799667
109      -0.000014207201
110       0.000027595127
111      -0.000000133184
112       0.000010983651
113      -0.000014847673
114      -0.434598796326
115      -0.638955945925
116      -0.034782974312
117       0.024240943043
118      -0.012206013283
119      -0.001678938336
120       0.000272667132
121       0.000319800585
122       0.003497468169
123      -0.000436597452
124      -0.000564910963
125      -0.002292621590
126       0.000611098856
127       0.000621528302
128       0.000104515131
129       0.000031934922
130       0.000028598606
131      -0.000198071829
132       0.000010853104
133      -0.000454818852
134      -0.000150066952
135      -0.000088264196
136       0.000847971615
137      -0.000061366790
138       0.000023933034
139      -0.000138584010
140       0.000012700369
141      -0.000057147501
142       0.000013565317
143      -0.000179342338
144       0.000026577383
145      -0.000001677486
146       0.000015628096
147      -0.000138167899
148       0.000548853405
149      -0.002009237026
150       0.000009956551
151      -0.000001503422
152      -0.000034908252
153      -0.000001672439
154      -0.000000271675
155       0.000121342073
156       0.000723906211
157      -0.000046509930
158       0.000376949573
159       0.000002512071
160       0.000018754985
161       0.000004026106
162      -0.000029034049
163       0.000003481469
164       0.000004044035
165      -0.000087724787
166      -0.000011268514
167       0.000068046503
168      -0.000008675778
169      -0.000002358800
170       0.000004684742
171      -0.000000145624
172       0.000008245937
173       0.000001365715
174       0.000007565552
175      -0.000002346252
 Sym=     1a
 Ene= -6.66581929699455E+00
 Spin= Alpha
 Occup= 2.000000
  1      -0.000000219308
  2       0.000018447021
  3      -0.000110344876
  4      -0.000034034958
  5       0.000337430624
  6      -0.000017343340
  7      -0.000016639915
  8      -0.000011729435
  9      -0.000011299812
 10      -0.000011213010
 11      -0.000007556979
 12      -0.000009851375
 13      -0.000009486143
 14      -0.000006720540
 15       0.000060733291
 16       0.000177169866
 17      -0.000618807005
 18       0.000315921010
 19       0.004605066076
 20       0.000194708825
 21       0.000462620194
 22      -0.000180993779
 23      -0.000699504665
 24      -0.001675831103
 25       0.000665836426
 26      -0.000803589654
 27      -0.001878634863
 28       0.000713844590
 29       0.000073309394
 30       0.000038988761
 31       0.000101894725
 32       0.000114268154
 33      -0.000127036502
 34      -0.000374648012
 35      -0.000199048320
 36      -0.000509363631
 37      -0.000575091151
 38       0.000642710236
 39       0.000009898812
 40       0.000026619722
 41      -0.000004477957
 42      -0.000004320974
 43      -0.000004972879
 44      -0.000021661441
 45       0.000000465478
 46       0.282227199719
 47       0.265326023262
 48      -0.780952565085
 49      -0.033041766202
 50      -0.010858617902
 51      -0.003635443440