
                                 *****************
                                 * O   R   C   A *
                                 *****************

                                            #,                                       
                                            ###                                      
                                            ####                                     
                                            #####                                    
                                            ######                                   
                                           ########,                                 
                                     ,,################,,,,,                         
                               ,,#################################,,                 
                          ,,##########################################,,             
                       ,#########################################, ''#####,          
                    ,#############################################,,   '####,        
                  ,##################################################,,,,####,       
                ,###########''''           ''''###############################       
              ,#####''   ,,,,##########,,,,          '''####'''          '####       
            ,##' ,,,,###########################,,,                        '##       
           ' ,,###''''                  '''############,,,                           
         ,,##''                                '''############,,,,        ,,,,,,###''
      ,#''                                            '''#######################'''  
     '                                                          ''''####''''         
             ,#######,   #######,   ,#######,      ##                                
            ,#'     '#,  ##    ##  ,#'     '#,    #''#        ,####,   ,####,        
            ##       ##  ##   ,#'  ##            #'  '#       #'       #'  '#        
            ##       ##  #######   ##           ,######,      #####,   #    #        
            '#,     ,#'  ##    ##  '#,     ,#' ,#      #,     #,   #   #,  ,#        
             '#######'   ##     ##  '#######'  #'      '#     '####' # '####'        



                #########################################################
                #                        -***-                          #
                #          Department of theory and spectroscopy        #
                #                                                       #
                #                      Frank Neese                      #
                #                                                       #
                #     Directorship, Architecture, Infrastructure        #
                #                    SHARK, DRIVERS                     #
                #        Core code/Algorithms in most modules           #
                #                                                       #
                #        Max Planck Institute fuer Kohlenforschung      #
                #                Kaiser Wilhelm Platz 1                 #
                #                 D-45470 Muelheim/Ruhr                 #
                #                      Germany                          #
                #                                                       #
                #                  All rights reserved                  #
                #                        -***-                          #
                #########################################################


                         Program Version 6.0.1  -  RELEASE   -


 With contributions from (in alphabetic order):
[Max-Planck-Institut fuer Kohlenforschung]                               
  Daniel Aravena         : Magnetic Suceptibility                        
  Michael Atanasov       : Ab Initio Ligand Field Theory (pilot matlab implementation)
  Alexander A. Auer      : GIAO ZORA, VPT2 properties, NMR spectrum      
  Ute Becker             : All parallelization in ORCA, NUMFREQ, NUMCALC 
  Giovanni Bistoni       : ED, misc. LED, open-shell LED, HFLD           
  Martin Brehm           : Molecular dynamics                            
  Dmytro Bykov           : pre 5.0 version of the SCF Hessian            
  Marcos Casanova-Páez   : Triplet and SCS-CIS(D). UHF-(DLPNO)-IP/EA/STEOM-CCSD. UHF-CVS-IP/STEOM-CCSD   
  Vijay G. Chilkuri      : MRCI spin determinant printing, contributions to CSF-ICE 
  Pauline Colinet        : FMM embedding                                 
  Dipayan Datta          : RHF DLPNO-CCSD density                        
  Achintya Kumar Dutta   : EOM-CC, STEOM-CC                              
  Nicolas Foglia         : Exact transition moments, OPA infrastructure, MCD improvements    
  Dmitry Ganyushin       : Spin-Orbit,Spin-Spin,Magnetic field MRCI      
  Miquel Garcia-Rates    : C-PCM and meta-GGA Hessian, CCSD/C-PCM, Gaussian charge scheme 
  Tiago L. C. Gouveia    : GS-ROHF, GS-ROCIS                             
  Yang Guo               : DLPNO-NEVPT2, F12-NEVPT2, CIM, IAO-localization        
  Andreas Hansen         : Spin unrestricted coupled pair/coupled cluster methods 
  Ingolf Harden          : AUTO-CI MPn and infrastructure                
  Benjamin Helmich-Paris : MC-RPA, TRAH-(SCF,CASSCF), AVAS, COSX integrals, SCF dyn. polar. 
  Lee Huntington         : MR-EOM, pCC                                   
  Robert Izsak           : Overlap fitted RIJCOSX, COSX-SCS-MP3, EOM     
  Riya Kayal             : Wick's Theorem for AUTO-CI, AUTO-CI UHF-CCSDT 
  Emily Kempfer          : AUTO-CI, RHF CISDT and CCSDT                  
  Christian Kollmar      : KDIIS, OOCD, Brueckner-CCSD(T), CCSD density, CASPT2, CASPT2-K, improved NEVPT2 
  Axel Koslowski         : Symmetry handling                             
  Simone Kossmann        : meta-GGA functionals, TD-DFT gradient, OOMP2, (MP2 Hessian; deprecated post 5.0) 
  Lucas Lang             : DCDCAS                                        
  Marvin Lechner         : AUTO-CI (C++ implementation), FIC-MRCC        
  Spencer Leger          : CASSCF response                               
  Dagmar Lenk            : GEPOL surface, SMD, ORCA-2-JSON               
  Dimitrios Liakos       : Extrapolation schemes; Compound Job, initial MDCI parallelization 
  Dimitrios Manganas     : Further ROCIS development; embedding schemes. LFT, Crystal Embedding 
  Dimitrios Pantazis     : SARC Basis sets                               
  Anastasios Papadopoulos: AUTO-CI, single reference methods and gradients 
  Taras Petrenko         : pre 6.0 DFT Hessian and TD-DFT gradient, (ASA, deprecated), ECA, 1-Electron XAS/XES, NRVS 
  Peter Pinski           : DLPNO-MP2, DLPNO-MP2 Gradient                 
  Christoph Reimann      : Effective Core Potentials                     
  Marius Retegan         : Local ZFS, SOC                                
  Christoph Riplinger    : Optimizer, TS searches, QM/MM, DLPNO-CCSD(T), (RO)-DLPNO pert. Triples 
  Michael Roemelt        : Original ROCIS implementation                 
  Masaaki Saitow         : Open-shell DLPNO-CCSD energy and density      
  Barbara Sandhoefer     : DKH picture change effects                    
  Kantharuban Sivalingam : CASSCF convergence/infrastructure, NEVPT2 and variants, FIC-MRCI 
  Bernardo de Souza      : ESD, SOC TD-DFT                               
  Georgi L. Stoychev     : AutoAux, RI-MP2 NMR, DLPNO-MP2 response, X2C  
  Van Anh Tran           : RI-MP2 g-tensors                              
  Willem Van den Heuvel  : Paramagnetic NMR                              
  Zikuan Wang            : NOTCH, Electric field optimization            
  Frank Wennmohs         : Technical directorship and infrastructure     
  Hang Xu                : AUTO-CI-Response properties                   
                                                                         
[FACCTs GmbH]                                                            
  Markus Bursch, Miquel Garcia-Rates, Christoph Riplinger, Bernardo de Souza, Georgi L. Stoychev 
                                                                 
  APM, Basis sets (HGBS, AHGBS, def-TZVP (Ac-Lr), def2-XVPD (La-Lu)), CI-OPT, improved COSX, DLPNO-Multilevel,           
  DOCKER, DRACO, updates on ESD, GOAT, IRC, LR-CPCM, MBIS, meta-GGA TD-DFT gradient, ML-optimized integration grids, 
  MM, NACMEs, nearIR, NEB, NEB-TS, NL-DFT gradient (VV10), 2- and 3-layer-ONIOM, interface openCOSMO-RS, QMMM,   
  Crystal-QMMM, SF, symmetry and pop. for TD-DFT, r2SCAN hybrids, SOLVATOR                                   
                                                                         
[Other institutions]                                                     
  V. Asgeirsson          : NEB                                           
  Christoph Bannwarth    : sTDA-DFT, sTD-DFT, PBEh-3c, B97-3c, D3        
  Sebastian Ehlert       : rSCAN, r2SCAN, r2SCAN-3c, D4, dhf basis sets  
  Marvin Friede          : D4 for Fr, Ra, Ac-Lr                          
  Lars Goerigk           : TD-DFT with DH, B97 family of functionals     
  Stefan Grimme          : VdW corrections, initial TS optimization, DFT functionals, gCP, sTDA/sTD-DF 
  Waldemar Hujo          : DFT-NL                                        
  H. Jonsson             : NEB                                           
  Holger Kruse           : gCP                                           
  Marcel Mueller         : wB97X-3c, vDZP basis set                      
  Hagen Neugebauer       : wr2SCAN                                       
  Tobias Risthaus        : range-separated hybrid DFT                    
  Lukas Wittmann         : regularized MP2, r2SCAN double-hybrids, wr2SCAN        
                                                                         
We gratefully acknowledge several colleagues who have allowed us to      
interface, adapt or use parts of their codes:                            
  Ed Valeev, F. Pavosevic, A. Kumar             : LibInt (2-el integral package), F12 methods 
  Garnet Chan, S. Sharma, J. Yang, R. Olivares  : DMRG                   
  Ulf Ekstrom                                   : XCFun DFT Library      
  Mihaly Kallay                                 : mrcc  (arbitrary order and MRCC methods)
  Frank Weinhold                                : gennbo (NPA and NBO analysis)           
  Simon Mueller                                 : openCOSMO-RS                            
  Christopher J. Cramer and Donald G. Truhlar   : smd solvation model                     
  S Lehtola, MJT Oliveira, MAL Marques          : LibXC Library                           
  Liviu Ungur et al                             : ANISO software                          


 Your calculation uses the libint2 library for the computation of 2-el integrals
 For citations please refer to: http://libint.valeyev.net

 Your ORCA version has been built with support for libXC version: 6.2.2
 For citations please refer to: https://libxc.gitlab.io

 This ORCA versions uses:
   CBLAS   interface :  Fast vector & matrix operations
   LAPACKE interface :  Fast linear algebra routines
   SCALAPACK package :  Parallel linear algebra routines
   Shared memory     :  Shared parallel matrices
   BLAS/LAPACK       :  OpenBLAS 0.3.27  USE64BITINT DYNAMIC_ARCH NO_AFFINITY SkylakeX SINGLE_THREADED
        Core in use  :  SkylakeX
   Copyright (c) 2011-2014, The OpenBLAS Project


NOTE: MaxCore=5000 MB was set to SCF,MP2,MDCI,CIPSI,MRCI and CIS
      => If you want to overwrite this, your respective input block should be placed after the MaxCore statement
Your calculation utilizes the atom-pairwise dispersion correction
with the Becke-Johnson damping scheme (D3BJ)


Warning: RI is on but no J-basis has been assigned. Assigning Def2/J (nothing to worry about!)
================================================================================

----- Orbital basis set information -----
Your calculation utilizes the basis: def2-TZVP
   F. Weigend and R. Ahlrichs, Phys. Chem. Chem. Phys. 7, 3297 (2005).

----- AuxJ basis set information -----
Your calculation utilizes the auxiliary basis: def2/J
   F. Weigend, Phys. Chem. Chem. Phys. 8, 1057 (2006).

================================================================================
                                        WARNINGS
                       Please study these warnings very carefully!
================================================================================

WARNING: Old DensityContainer found on disk!
         Will remove this file - 
         If you want to keep old densities, please start your calculation with a different basename. 


WARNING: Geometry Optimization
  ===> : Switching off AutoStart
         For restart on a previous wavefunction, please use MOREAD

================================================================================
                                       INPUT FILE
================================================================================
NAME = EC.inp
|  1> ! Opt B3LYP def2-TZVP TightSCF TightOpt D3BJ RIJCOSX
|  2> 
|  3> %maxcore 5000
|  4> 
|  5> %pal
|  6> nprocs 32
|  7> end
|  8> 
|  9> * xyz 0 1
| 10> O         -0.01810        1.11950       -0.11210
| 11> O         -0.01830       -1.11960        0.11150
| 12> O          1.98220       -0.00010        0.00040
| 13> C         -1.35290        0.72760        0.17230
| 14> C         -1.35320       -0.72740       -0.17180
| 15> C          0.76030       -0.00010       -0.00030
| 16> H         -2.06510        1.30160       -0.42630
| 17> H         -1.54830        0.90660        1.23480
| 18> H         -2.06510       -1.30120        0.42740
| 19> H         -1.54950       -0.90630       -1.23420
| 20> *
| 21> 
| 22>                          ****END OF INPUT****
================================================================================

                       *****************************
                       * Geometry Optimization Run *
                       *****************************

Geometry optimization settings:
Update method            Update   .... BFGS
Choice of coordinates    CoordSys .... (2022) Redundant Internals
Initial Hessian          InHess   .... Almloef's Model
Max. no of cycles        MaxIter  .... 50

Convergence Tolerances:
Energy Change            TolE     ....  1.0000e-06 Eh
Max. Gradient            TolMAXG  ....  1.0000e-04 Eh/bohr
RMS Gradient             TolRMSG  ....  3.0000e-05 Eh/bohr
Max. Displacement        TolMAXD  ....  1.0000e-03 bohr
RMS Displacement         TolRMSD  ....  6.0000e-04 bohr
Strict Convergence                .... False

------------------------------------------------------------------------------
                        ORCA OPTIMIZATION COORDINATE SETUP
------------------------------------------------------------------------------

The optimization will be done in redundant internal coordinates (2022)
Making redundant internal coordinates   ...  (2022 redundants) done
Evaluating the initial hessian          ...  (Almloef) done
Evaluating the coordinates              ...  done
Calculating the B-matrix                .... done
Calculating the G-matrix                .... done
Diagonalizing the G-matrix              .... done
The first mode is                       ....   19
The number of degrees of freedom        ....   24

    -----------------------------------------------------------------
                    Redundant Internal Coordinates


    -----------------------------------------------------------------
         Definition                    Initial Value    Approx d2E/dq
    -----------------------------------------------------------------
      1. B(C   3,O   0)                  1.4199         0.501357   
      2. B(C   4,C   3)                  1.4951         0.424621   
      3. B(C   4,O   1)                  1.4199         0.501436   
      4. B(C   5,O   2)                  1.2219         1.037691   
      5. B(C   5,O   1)                  1.3682         0.606235   
      6. B(C   5,O   0)                  1.3682         0.606306   
      7. B(H   6,C   3)                  1.0932         0.355927   
      8. B(H   7,C   3)                  1.0950         0.353485   
      9. B(H   8,C   4)                  1.0932         0.355890   
     10. B(H   9,C   4)                  1.0951         0.353423   
     11. A(C   3,O   0,C   5)          107.0139         0.410849   
     12. A(C   4,O   1,C   5)          107.0193         0.410852   
     13. A(O   0,C   3,H   6)          110.9679         0.337795   
     14. A(O   0,C   3,H   7)          108.4796         0.337408   
     15. A(O   0,C   3,C   4)          102.8668         0.388383   
     16. A(C   4,C   3,H   7)          112.4790         0.330226   
     17. A(H   6,C   3,H   7)          109.2215         0.289465   
     18. A(C   4,C   3,H   6)          112.6330         0.330602   
     19. A(C   3,C   4,H   8)          112.6297         0.330596   
     20. A(O   1,C   4,H   8)          110.9706         0.337798   
     21. A(O   1,C   4,C   3)          102.8676         0.388394   
     22. A(H   8,C   4,H   9)          109.2246         0.289452   
     23. A(C   3,C   4,H   9)          112.4756         0.330216   
     24. A(O   1,C   4,H   9)          108.4797         0.337407   
     25. A(O   1,C   5,O   2)          124.6818         0.468441   
     26. A(O   0,C   5,O   2)          124.6790         0.468451   
     27. A(O   0,C   5,O   1)          110.6392         0.424987   
     28. D(C   4,C   3,O   0,C   5)    -25.3317         0.019875   
     29. D(H   6,C   3,O   0,C   5)   -146.0134         0.019875   
     30. D(H   7,C   3,O   0,C   5)     93.9993         0.019875   
     31. D(H   8,C   4,C   3,H   7)     33.7259         0.014259   
     32. D(H   9,C   4,O   1,C   5)     94.0232         0.019882   
     33. D(O   1,C   4,C   3,O   0)     30.7027         0.014259   
     34. D(H   8,C   4,O   1,C   5)   -145.9840         0.019882   
     35. D(O   1,C   4,C   3,H   7)    -85.8092         0.014259   
     36. D(H   8,C   4,C   3,O   0)    150.2377         0.014259   
     37. D(H   8,C   4,C   3,H   6)    -90.2292         0.014259   
     38. D(O   1,C   4,C   3,H   6)    150.2357         0.014259   
     39. D(C   3,C   4,O   1,C   5)    -25.3044         0.019882   
     40. D(O   0,C   5,O   1,C   4)     10.3076         0.026879   
     41. D(O   2,C   5,O   0,C   3)   -169.6054         0.026886   
     42. D(O   1,C   5,O   0,C   3)     10.3544         0.026886   
     43. D(O   2,C   5,O   1,C   4)   -169.7326         0.026879   
    -----------------------------------------------------------------

Number of atoms                         .... 10
Number of degrees of freedom            .... 43


         *************************************************************
         *                GEOMETRY OPTIMIZATION CYCLE   1            *
         *************************************************************
---------------------------------
CARTESIAN COORDINATES (ANGSTROEM)
---------------------------------
  O     -0.018100    1.119500   -0.112100
  O     -0.018300   -1.119600    0.111500
  O      1.982200   -0.000100    0.000400
  C     -1.352900    0.727600    0.172300
  C     -1.353200   -0.727400   -0.171800
  C      0.760300   -0.000100   -0.000300
  H     -2.065100    1.301600   -0.426300
  H     -1.548300    0.906600    1.234800
  H     -2.065100   -1.301200    0.427400
  H     -1.549500   -0.906300   -1.234200

----------------------------
CARTESIAN COORDINATES (A.U.)
----------------------------
  NO LB      ZA    FRAG     MASS         X           Y           Z
   0 O     8.0000    0    15.999   -0.034204    2.115548   -0.211838
   1 O     8.0000    0    15.999   -0.034582   -2.115737    0.210704
   2 O     8.0000    0    15.999    3.745815   -0.000189    0.000756
   3 C     6.0000    0    12.011   -2.556610    1.374965    0.325600
   4 C     6.0000    0    12.011   -2.557177   -1.374587   -0.324655
   5 C     6.0000    0    12.011    1.436759   -0.000189   -0.000567
   6 H     1.0000    0     1.008   -3.902473    2.459668   -0.805590
   7 H     1.0000    0     1.008   -2.925863    1.713226    2.333434
   8 H     1.0000    0     1.008   -3.902473   -2.458912    0.807669
   9 H     1.0000    0     1.008   -2.928131   -1.712659   -2.332300

--------------------------------
INTERNAL COORDINATES (ANGSTROEM)
--------------------------------
 O      0   0   0     0.000000000000     0.00000000     0.00000000
 O      1   0   0     2.250236834202     0.00000000     0.00000000
 O      1   2   0     2.295073092518    60.64583960     0.00000000
 C      1   2   3     1.419915493964    72.86509508   190.38141494
 C      2   1   3     1.419872437932    72.86658929   190.29377070
 C      3   1   2     1.221900200507    29.35599380     0.02621822
 H      4   1   2     1.093172813420   110.96792687   220.13028085
 H      4   1   2     1.095047218160   108.47963609   100.14293672
 H      5   2   1     1.093201120563   110.97061219   220.13186642
 H      5   2   1     1.095094817813   108.47974923   100.13899341

---------------------------
INTERNAL COORDINATES (A.U.)
---------------------------
 O      0   0   0     0.000000000000     0.00000000     0.00000000
 O      1   0   0     4.252331353104     0.00000000     0.00000000
 O      1   2   0     4.337059602191    60.64583960     0.00000000
 C      1   2   3     2.683251416904    72.86509508   190.38141494
 C      2   1   3     2.683170052795    72.86658929   190.29377070
 C      3   1   2     2.309056741942    29.35599380     0.02621822
 H      4   1   2     2.065797234411   110.96792687   220.13028085
 H      4   1   2     2.069339346035   108.47963609   100.14293672
 H      5   2   1     2.065850727160   110.97061219   220.13186642
 H      5   2   1     2.069429296342   108.47974923   100.13899341

---------------------
BASIS SET INFORMATION
---------------------
There are 3 groups of distinct atoms

 Group   1 Type O   : 11s6p2d1f contracted to 5s3p2d1f pattern {62111/411/11/1}
 Group   2 Type C   : 11s6p2d1f contracted to 5s3p2d1f pattern {62111/411/11/1}
 Group   3 Type H   : 5s1p contracted to 3s1p pattern {311/1}

Atom   0O    basis set group =>   1
Atom   1O    basis set group =>   1
Atom   2O    basis set group =>   1
Atom   3C    basis set group =>   2
Atom   4C    basis set group =>   2
Atom   5C    basis set group =>   2
Atom   6H    basis set group =>   3
Atom   7H    basis set group =>   3
Atom   8H    basis set group =>   3
Atom   9H    basis set group =>   3
---------------------------------
AUXILIARY/J BASIS SET INFORMATION
---------------------------------
There are 3 groups of distinct atoms

 Group   1 Type O   : 12s5p4d2f1g contracted to 6s4p3d1f1g pattern {711111/2111/211/2/1}
 Group   2 Type C   : 12s5p4d2f1g contracted to 6s4p3d1f1g pattern {711111/2111/211/2/1}
 Group   3 Type H   : 5s2p1d contracted to 3s1p1d pattern {311/2/1}

Atom   0O    basis set group =>   1
Atom   1O    basis set group =>   1
Atom   2O    basis set group =>   1
Atom   3C    basis set group =>   2
Atom   4C    basis set group =>   2
Atom   5C    basis set group =>   2
Atom   6H    basis set group =>   3
Atom   7H    basis set group =>   3
Atom   8H    basis set group =>   3
Atom   9H    basis set group =>   3
--------------------------------------------------------------------------
By default, for Open MPI 4.0 and later, infiniband ports on a device
are not used by default.  The intent is to use UCX for these devices.
You can override this policy by setting the btl_openib_allow_ib MCA parameter
to true.

  Local host:              psid07
  Local adapter:           mlx4_0
  Local port:              1

--------------------------------------------------------------------------
--------------------------------------------------------------------------
WARNING: There was an error initializing an OpenFabrics device.

  Local host:   psid07
  Local device: mlx4_0
--------------------------------------------------------------------------


           ************************************************************
           *        Program running with 32 parallel MPI-processes    *
           *              working on a common directory               *
           ************************************************************
------------------------------------------------------------------------------
                             ORCA STARTUP CALCULATIONS
                           -- RI-GTO INTEGRALS CHOSEN --
------------------------------------------------------------------------------
------------------------------------------------------------------------------
                   ___                                                        
                  /   \      - P O W E R E D   B Y -                         
                 /     \                                                     
                 |  |  |   _    _      __       _____    __    __             
                 |  |  |  | |  | |    /  \     |  _  \  |  |  /  |          
                  \  \/   | |  | |   /    \    | | | |  |  | /  /          
                 / \  \   | |__| |  /  /\  \   | |_| |  |  |/  /          
                |  |  |   |  __  | /  /__\  \  |    /   |      \           
                |  |  |   | |  | | |   __   |  |    \   |  |\   \          
                \     /   | |  | | |  |  |  |  | |\  \  |  | \   \       
                 \___/    |_|  |_| |__|  |__|  |_| \__\ |__|  \__/        
                                                                              
                      - O R C A' S   B I G   F R I E N D -                    
                                      &                                       
                       - I N T E G R A L  F E E D E R -                       
                                                                              
 v1 FN, 2020, v2 2021, v3 2022-2024                                           
------------------------------------------------------------------------------


----------------------
SHARK INTEGRAL PACKAGE
----------------------

Number of atoms                             ...     10
Number of basis functions                   ...    210
Number of shells                            ...     82
Maximum angular momentum                    ...      3
Integral batch strategy                     ... SHARK/LIBINT Hybrid
RI-J (if used) integral strategy            ... SPLIT-RIJ (Revised 2003 algorithm where possible)
Printlevel                                  ...      1
Contraction scheme used                     ... SEGMENTED contraction
Prescreening option                         ... SCHWARTZ
   Thresh                                   ... 2.500e-11
   Tcut                                     ... 2.500e-12
   Tpresel                                  ... 2.500e-12 
Coulomb Range Separation                    ... NOT USED
Exchange Range Separation                   ... NOT USED
Multipole approximations                    ... NOT USED
Finite Nucleus Model                        ... NOT USED
CABS basis                                  ... NOT available
Auxiliary Coulomb fitting basis             ... AVAILABLE
   # of basis functions in Aux-J            ...    338
   # of shells in Aux-J                     ...    110
   Maximum angular momentum in Aux-J        ...      4
Auxiliary J/K fitting basis                 ... NOT available
Auxiliary Correlation fitting basis         ... NOT available
Auxiliary 'external' fitting basis          ... NOT available

Checking pre-screening integrals            ... done (  0.0 sec) Dimension = 82
Check shell pair data                       ... done (  0.0 sec)
Shell pair information
Shell pair cut-off parameter TPreSel        ...   2.5e-12
Total number of shell pairs                 ...      3403
Shell pairs after pre-screening             ...      3265
Total number of primitive shell pairs       ...     10584
Primitive shell pairs kept                  ...      8005
          la=0 lb=0:    831 shell pairs
          la=1 lb=0:    900 shell pairs
          la=1 lb=1:    251 shell pairs
          la=2 lb=0:    480 shell pairs
          la=2 lb=1:    260 shell pairs
          la=2 lb=2:     78 shell pairs
          la=3 lb=0:    242 shell pairs
          la=3 lb=1:    130 shell pairs
          la=3 lb=2:     72 shell pairs
          la=3 lb=3:     21 shell pairs

Calculating one electron integrals          ... done (  0.0 sec)
Calculating RI/J V-Matrix + Cholesky decomp.... done (  0.1 sec)
Calculating Nuclear repulsion               ... done (  0.0 sec) ENN=    246.398107401513 Eh

Diagonalization of the overlap matrix:
Smallest eigenvalue                        ... 3.718e-04
Time for diagonalization                   ...    0.004 sec
Threshold for overlap eigenvalues          ... 1.000e-07
Number of eigenvalues below threshold      ... 0
Time for construction of square roots      ...    0.004 sec
Total time needed                          ...    0.020 sec

-------------------
DFT GRID GENERATION
-------------------

General Integration Accuracy     IntAcc      ... 4.388
Radial Grid Type                 RadialGrid  ... OptM3 with GC (2021)
Angular Grid (max. ang.)         AngularGrid ... 4 (Lebedev-302)
Angular grid pruning method      GridPruning ... 4 (adaptive)
Weight generation scheme         WeightScheme... mBecke (2022)
Basis function cutoff            BFCut       ... 1.0000e-11
Integration weight cutoff        WCut        ... 1.0000e-14
Partially contracted basis set               ... off
Rotationally invariant grid construction     ... off
Angular grids for H and He will be reduced by one unit

Total number of grid points                  ...    49292
Total number of batches                      ...      775
Average number of points per batch           ...       63
Average number of grid points per atom       ...     4929

--------------------
COSX GRID GENERATION
--------------------

GRIDX 1
-------
General Integration Accuracy     IntAcc      ... 3.816
Radial Grid Type                 RadialGrid  ... OptM3 with GC (2021)
Angular Grid (max. ang.)         AngularGrid ... 1 (Lebedev-50)
Angular grid pruning method      GridPruning ... 4 (adaptive)
Weight generation scheme         WeightScheme... mBecke (2022)
Basis function cutoff            BFCut       ... 1.0000e-11
Integration weight cutoff        WCut        ... 1.0000e-14
Partially contracted basis set               ... on
Rotationally invariant grid construction     ... off
Angular grids for H and He will be reduced by one unit

Total number of grid points                  ...     6274
Total number of batches                      ...       56
Average number of points per batch           ...      112
Average number of grid points per atom       ...      627
UseSFitting                                  ... on

GRIDX 2
-------
General Integration Accuracy     IntAcc      ... 4.020
Radial Grid Type                 RadialGrid  ... OptM3 with GC (2021)
Angular Grid (max. ang.)         AngularGrid ... 2 (Lebedev-110)
Angular grid pruning method      GridPruning ... 4 (adaptive)
Weight generation scheme         WeightScheme... mBecke (2022)
Basis function cutoff            BFCut       ... 1.0000e-11
Integration weight cutoff        WCut        ... 1.0000e-14
Partially contracted basis set               ... on
Rotationally invariant grid construction     ... off
Angular grids for H and He will be reduced by one unit

Total number of grid points                  ...    14049
Total number of batches                      ...      115
Average number of points per batch           ...      122
Average number of grid points per atom       ...     1405
UseSFitting                                  ... on

GRIDX 3
-------
General Integration Accuracy     IntAcc      ... 4.338
Radial Grid Type                 RadialGrid  ... OptM3 with GC (2021)
Angular Grid (max. ang.)         AngularGrid ... 3 (Lebedev-194)
Angular grid pruning method      GridPruning ... 4 (adaptive)
Weight generation scheme         WeightScheme... mBecke (2022)
Basis function cutoff            BFCut       ... 1.0000e-11
Integration weight cutoff        WCut        ... 1.0000e-14
Partially contracted basis set               ... on
Rotationally invariant grid construction     ... off
Angular grids for H and He will be reduced by one unit

Total number of grid points                  ...    31021
Total number of batches                      ...      246
Average number of points per batch           ...      126
Average number of grid points per atom       ...     3102
UseSFitting                                  ... on
Initializing property integral containers    ... done (  0.0 sec)

SHARK setup successfully completed in   0.9 seconds

Maximum memory used throughout the entire STARTUP-calculation: 16.5 MB
[psid07:171870] 31 more processes have sent help message help-mpi-btl-openib.txt / ib port not selected
[psid07:171870] Set MCA parameter "orte_base_help_aggregate" to 0 to see all help / error messages
[psid07:171870] 31 more processes have sent help message help-mpi-btl-openib.txt / error in device init
--------------------------------------------------------------------------
By default, for Open MPI 4.0 and later, infiniband ports on a device
are not used by default.  The intent is to use UCX for these devices.
You can override this policy by setting the btl_openib_allow_ib MCA parameter
to true.

  Local host:              psid07
  Local adapter:           mlx4_0
  Local port:              1

--------------------------------------------------------------------------
--------------------------------------------------------------------------
WARNING: There was an error initializing an OpenFabrics device.

  Local host:   psid07
  Local device: mlx4_0
--------------------------------------------------------------------------


           ************************************************************
           *        Program running with 32 parallel MPI-processes    *
           *              working on a common directory               *
           ************************************************************
-------------------------------------------------------------------------------
                                 ORCA GUESS
                   Start orbitals & Density for SCF / CASSCF
-------------------------------------------------------------------------------

------------
SCF SETTINGS
------------
Hamiltonian:
 Density Functional     Method          .... DFT(GTOs)
 Exchange Functional    Exchange        .... B88
   X-Alpha parameter    XAlpha          ....  0.666667
   Becke's b parameter  XBeta           ....  0.004200
 Correlation Functional Correlation     .... LYP
 LDA part of GGA corr.  LDAOpt          .... VWN-5
 Gradients option       PostSCFGGA      .... off
 Hybrid DFT is turned on
   Fraction HF Exchange ScalHFX         ....  0.200000
   Scaling of DF-GGA-X  ScalDFX         ....  0.720000
   Scaling of DF-GGA-C  ScalDFC         ....  0.810000
   Scaling of DF-LDA-C  ScalLDAC        ....  1.000000
   Perturbative correction              ....  0.000000
   NL short-range parameter             ....  4.800000
 RI-approximation to the Coulomb term is turned on
   Number of AuxJ basis functions       .... 338
   RIJ-COSX (HFX calculated with COS-X)).... on


General Settings:
 Integral files         IntName         .... EC
 Hartree-Fock type      HFTyp           .... RHF
 Total Charge           Charge          ....    0
 Multiplicity           Mult            ....    1
 Number of Electrons    NEL             ....   46
 Basis Dimension        Dim             ....  210
 Nuclear Repulsion      ENuc            ....    246.3981074015 Eh

Convergence Acceleration:
 AO-DIIS                CNVDIIS         .... on
   Start iteration      DIISMaxIt       ....    12
   Startup error        DIISStart       ....  0.200000
   # of expansion vecs  DIISMaxEq       ....     5
   Bias factor          DIISBfac        ....   1.050
   Max. coefficient     DIISMaxC        ....  10.000
 MO-DIIS                CNVKDIIS        .... off
 Trust-Rad. Augm. Hess. CNVTRAH         .... auto
   Auto Start mean grad. ratio tolernc. ....  1.125000
   Auto Start start iteration           ....    50
   Auto Start num. interpolation iter.  ....    10
   Max. Number of Micro iterations      ....    24
   Max. Number of Macro iterations      .... Maxiter - #DIIS iter
   Number of Davidson start vectors     ....     2
   Converg. threshold    (grad. norm)   ....   1.000e-05
   Grad. Scal. Fac. for Micro threshold ....   0.100
   Minimum threshold for Micro iter.    ....   1.000e-02
   NR start threshold (gradient norm)   ....   1.000e-04
   Initial trust radius                 ....   0.400
   Minimum AH scaling param. (alpha)    ....   1.000
   Maximum AH scaling param. (alpha)    .... 1000.000
   Quad. conv. algorithm                .... NR
   White noise on init. David. guess    .... on
   Maximum white noise                  ....   0.010
   Pseudo random numbers                .... off
   Inactive MOs                         .... canonical
   Orbital update algorithm             .... Taylor
   Preconditioner                       .... Diag
   Full preconditioner red. dimension   ....   250
 SOSCF                  CNVSOSCF        .... on
   Start iteration      SOSCFMaxIt      ....   150
   Startup grad/error   SOSCFStart      ....  0.003300
   Hessian update       SOSCFHessUp     .... L-BFGS
 Level Shifting         CNVShift        .... on
   Level shift para.    LevelShift      ....    0.2500
   Turn off err/grad.   ShiftErr        ....    0.0010
 Zerner damping         CNVZerner       .... off
 Static damping         CNVDamp         .... on
   Fraction old density DampFac         ....    0.7000
   Max. Damping (<1)    DampMax         ....    0.9800
   Min. Damping (>=0)   DampMin         ....    0.0000
   Turn off err/grad.   DampErr         ....    0.1000

SCF Procedure:
 Maximum # iterations   MaxIter         ....   125
 SCF integral mode      SCFMode         .... Direct
   Integral package                     .... SHARK and LIBINT hybrid scheme
 Reset frequency        DirectResetFreq ....    20
 Integral Threshold     Thresh          ....  2.500e-11 Eh
 Primitive CutOff       TCut            ....  2.500e-12 Eh

Convergence Tolerance:
 Convergence Check Mode ConvCheckMode   .... Total+1el-Energy
 Convergence forced     ConvForced      .... 0
 Energy Change          TolE            ....  1.000e-08 Eh
 1-El. energy change                    ....  1.000e-05 Eh
 Orbital Gradient       TolG            ....  1.000e-05
 Orbital Rotation angle TolX            ....  1.000e-05
 DIIS Error             TolErr          ....  5.000e-07

------------------------------
INITIAL GUESS: MODEL POTENTIAL
------------------------------
Loading Hartree-Fock densities                     ... done
Calculating cut-offs                               ... done
Initializing the effective Hamiltonian             ... done
Setting up the integral package (SHARK)            ... done
Starting the Coulomb interaction                   ... done (   0.1 sec)
Making the grid                                    ... done (   0.1 sec)
Mapping shells                                     ... done
Starting the XC term evaluation                    ... done (   0.0 sec)
  promolecular density results
     # of electrons  =     45.996547973
     EX              =    -41.225206288
     EC              =     -1.616396361
     EX+EC           =    -42.841602649
Transforming the Hamiltonian                       ... done (   0.0 sec)
Diagonalizing the Hamiltonian                      ... done (   0.0 sec)
Back transforming the eigenvectors                 ... done (   0.0 sec)
Now organizing SCF variables                       ... done
                      ------------------
                      INITIAL GUESS DONE (   0.3 sec)
                      ------------------
             **** ENERGY FILE WAS UPDATED (EC.en.tmp) ****
Finished Guess after   1.1 sec
Maximum memory used throughout the entire GUESS-calculation: 11.6 MB
[psid07:171988] 31 more processes have sent help message help-mpi-btl-openib.txt / ib port not selected
[psid07:171988] Set MCA parameter "orte_base_help_aggregate" to 0 to see all help / error messages
[psid07:171988] 31 more processes have sent help message help-mpi-btl-openib.txt / error in device init
--------------------------------------------------------------------------
By default, for Open MPI 4.0 and later, infiniband ports on a device
are not used by default.  The intent is to use UCX for these devices.
You can override this policy by setting the btl_openib_allow_ib MCA parameter
to true.

  Local host:              psid07
  Local adapter:           mlx4_0
  Local port:              1

--------------------------------------------------------------------------
--------------------------------------------------------------------------
WARNING: There was an error initializing an OpenFabrics device.

  Local host:   psid07
  Local device: mlx4_0
--------------------------------------------------------------------------


           ************************************************************
           *        Program running with 32 parallel MPI-processes    *
           *              working on a common directory               *
           ************************************************************

-------------------------------------------------------------------------------------------
                                      ORCA LEAN-SCF
                              memory conserving SCF solver
-------------------------------------------------------------------------------------------

----------------------------------------D-I-I-S--------------------------------------------
Iteration    Energy (Eh)           Delta-E    RMSDP     MaxDP     DIISErr   Damp  Time(sec)
-------------------------------------------------------------------------------------------
               ***  Starting incremental Fock matrix formation  ***
    1    -342.1656825206619033     0.00e+00  1.80e-03  6.62e-02  3.19e-01  0.700   0.6
    2    -342.2665349308749683    -1.01e-01  1.10e-03  3.57e-02  1.11e-01  0.700   0.5
                               ***Turning on AO-DIIS***
    3    -342.2978151441451473    -3.13e-02  4.33e-04  7.35e-03  3.00e-02  0.700   0.5
    4    -342.3196753626340296    -2.19e-02  6.51e-04  1.47e-02  1.44e-02  0.000   0.4
    5    -342.3701024915386597    -5.04e-02  1.92e-04  4.13e-03  5.32e-03  0.000   0.4
                              *** Initializing SOSCF ***
---------------------------------------S-O-S-C-F--------------------------------------
Iteration    Energy (Eh)           Delta-E    RMSDP     MaxDP     MaxGrad    Time(sec)
--------------------------------------------------------------------------------------
    6    -342.3702851540579104    -1.83e-04  6.81e-05  1.17e-03  2.57e-03     0.4
               *** Restarting incremental Fock matrix formation ***
    7    -342.3702815480144181     3.61e-06  4.41e-05  1.07e-03  5.37e-04     0.5
    8    -342.3702727014375569     8.85e-06  2.40e-05  8.01e-04  1.24e-03     0.4
    9    -342.3702857283643652    -1.30e-05  7.56e-06  2.52e-04  1.38e-04     0.4
   10    -342.3702852908908199     4.37e-07  4.81e-06  1.47e-04  2.27e-04     0.5
[psid07:172094] 31 more processes have sent help message help-mpi-btl-openib.txt / ib port not selected
[psid07:172094] Set MCA parameter "orte_base_help_aggregate" to 0 to see all help / error messages
[psid07:172094] 31 more processes have sent help message help-mpi-btl-openib.txt / error in device init
   11    -342.3702859310598114    -6.40e-07  5.38e-07  9.12e-06  3.95e-06     0.4
   12    -342.3702859331234549    -2.06e-09  2.56e-07  4.52e-06  3.64e-06     0.4
                 **** Energy Check signals convergence ****

               *****************************************************
               *                     SUCCESS                       *
               *           SCF CONVERGED AFTER  12 CYCLES          *
               *****************************************************

Recomputing exchange energy using gridx3       ... done (    0.283 sec)
Old exchange energy                            :     -8.332837975 Eh
New exchange energy                            :     -8.332843274 Eh
Exchange energy change after final integration :     -0.000005299 Eh
Total energy after final integration           :   -342.370291232 Eh
             **** ENERGY FILE WAS UPDATED (EC.en.tmp) ****

----------------
TOTAL SCF ENERGY
----------------

Total Energy       :       -342.37029123189313 Eh           -9316.36926 eV

Components:
Nuclear Repulsion  :        246.39810740151324 Eh            6704.83337 eV
Electronic Energy  :       -588.76839333463670 Eh          -16021.20248 eV
One Electron Energy:       -955.48992840156598 Eh          -26000.20278 eV
Two Electron Energy:        366.72153506692928 Eh            9979.00029 eV

Virial components:
Potential Energy   :       -683.30581208823082 Eh          -18593.69643 eV
Kinetic Energy     :        340.93552085633775 Eh            9277.32717 eV
Virial Ratio       :          2.00420833350527

DFT components:
N(Alpha)           :       22.999991794677 electrons
N(Beta)            :       22.999991794677 electrons
N(Total)           :       45.999983589354 electrons
E(X)               :      -33.188181042190 Eh       
E(C)               :       -1.901584295840 Eh       
E(XC)              :      -35.089765338031 Eh       

---------------
SCF CONVERGENCE
---------------

  Last Energy change         ...    2.0636e-09  Tolerance :   1.0000e-08
  Last MAX-Density change    ...    4.5222e-06  Tolerance :   1.0000e-07
  Last RMS-Density change    ...    2.5593e-07  Tolerance :   5.0000e-09
  Last DIIS Error            ...    2.5733e-03  Tolerance :   5.0000e-07
  Last Orbital Gradient      ...    3.6428e-06  Tolerance :   1.0000e-05
  Last Orbital Rotation      ...    3.4108e-06  Tolerance :   1.0000e-05


----------------
ORBITAL ENERGIES
----------------

  NO   OCC          E(Eh)            E(eV) 
   0   2.0000     -19.195864      -522.3460 
   1   2.0000     -19.195850      -522.3456 
   2   2.0000     -19.119079      -520.2566 
   3   2.0000     -10.355814      -281.7960 
   4   2.0000     -10.258969      -279.1607 
   5   2.0000     -10.258698      -279.1534 
   6   2.0000      -1.168352       -31.7925 
   7   2.0000      -1.061083       -28.8735 
   8   2.0000      -1.033446       -28.1215 
   9   2.0000      -0.797363       -21.6973 
  10   2.0000      -0.686756       -18.6876 
  11   2.0000      -0.623187       -16.9578 
  12   2.0000      -0.562550       -15.3078 
  13   2.0000      -0.535260       -14.5652 
  14   2.0000      -0.510964       -13.9040 
  15   2.0000      -0.459492       -12.5034 
  16   2.0000      -0.443611       -12.0713 
  17   2.0000      -0.442312       -12.0359 
  18   2.0000      -0.397374       -10.8131 
  19   2.0000      -0.390939       -10.6380 
  20   2.0000      -0.326420        -8.8823 
  21   2.0000      -0.318399        -8.6641 
  22   2.0000      -0.300512        -8.1773 
  23   0.0000       0.011078         0.3015 
  24   0.0000       0.020586         0.5602 
  25   0.0000       0.035768         0.9733 
  26   0.0000       0.054766         1.4903 
  27   0.0000       0.068791         1.8719 
  28   0.0000       0.107630         2.9288 
  29   0.0000       0.117621         3.2006 
  30   0.0000       0.132221         3.5979 
  31   0.0000       0.163586         4.4514 
  32   0.0000       0.163647         4.4531 
  33   0.0000       0.193495         5.2653 
*Only the first 10 virtual orbitals were printed.

                    ********************************
                    * MULLIKEN POPULATION ANALYSIS *
                    ********************************

-----------------------
MULLIKEN ATOMIC CHARGES
-----------------------
   0 O :   -0.243759
   1 O :   -0.243755
   2 O :   -0.304291
   3 C :   -0.011021
   4 C :   -0.010978
   5 C :    0.377945
   6 H :    0.115522
   7 H :    0.102421
   8 H :    0.115515
   9 H :    0.102402
Sum of atomic charges:    0.0000000

--------------------------------
MULLIKEN REDUCED ORBITAL CHARGES
--------------------------------
  0 O s       :     3.784099  s :     3.784099
      pz      :     1.709260  p :     4.416533
      px      :     1.224218
      py      :     1.483055
      dz2     :     0.004831  d :     0.041112
      dxz     :     0.005825
      dyz     :     0.005718
      dx2y2   :     0.010666
      dxy     :     0.014072
      f0      :     0.000284  f :     0.002015
      f+1     :     0.000339
      f-1     :     0.000219
      f+2     :     0.000137
      f-2     :     0.000190
      f+3     :     0.000464
      f-3     :     0.000383

  1 O s       :     3.784102  s :     3.784102
      pz      :     1.709378  p :     4.416526
      px      :     1.224051
      py      :     1.483097
      dz2     :     0.004829  d :     0.041111
      dxz     :     0.005823
      dyz     :     0.005717
      dx2y2   :     0.010665
      dxy     :     0.014077
      f0      :     0.000284  f :     0.002015
      f+1     :     0.000339
      f-1     :     0.000219
      f+2     :     0.000137
      f-2     :     0.000190
      f+3     :     0.000464
      f-3     :     0.000383

  2 O s       :     3.810704  s :     3.810704
      pz      :     1.429458  p :     4.462011
      px      :     1.291248
      py      :     1.741305
      dz2     :     0.002689  d :     0.029757
      dxz     :     0.011015
      dyz     :     0.000066
      dx2y2   :     0.008436
      dxy     :     0.007551
      f0      :     0.000192  f :     0.001820
      f+1     :     0.000181
      f-1     :     0.000021
      f+2     :     0.000454
      f-2     :     0.000012
      f+3     :     0.000426
      f-3     :     0.000534

  3 C s       :     3.221008  s :     3.221008
      pz      :     1.023355  p :     2.669012
      px      :     0.726556
      py      :     0.919101
      dz2     :     0.015932  d :     0.110563
      dxz     :     0.030181
      dyz     :     0.014190
      dx2y2   :     0.018613
      dxy     :     0.031647
      f0      :     0.001624  f :     0.010437
      f+1     :     0.001196
      f-1     :     0.000714
      f+2     :     0.001660
      f-2     :     0.000698
      f+3     :     0.002551
      f-3     :     0.001994

  4 C s       :     3.221009  s :     3.221009
      pz      :     1.023446  p :     2.668972
      px      :     0.726491
      py      :     0.919035
      dz2     :     0.015904  d :     0.110559
      dxz     :     0.030208
      dyz     :     0.014188
      dx2y2   :     0.018614
      dxy     :     0.031644
      f0      :     0.001625  f :     0.010438
      f+1     :     0.001195
      f-1     :     0.000714
      f+2     :     0.001659
      f-2     :     0.000698
      f+3     :     0.002552
      f-3     :     0.001994

  5 C s       :     3.019112  s :     3.019112
      pz      :     0.802149  p :     2.286421
      px      :     0.749820
      py      :     0.734453
      dz2     :     0.011206  d :     0.286012
      dxz     :     0.074529
      dyz     :     0.040893
      dx2y2   :     0.058635
      dxy     :     0.100749
      f0      :     0.003279  f :     0.030510
      f+1     :     0.001931
      f-1     :     0.001401
      f+2     :     0.003249
      f-2     :     0.003923
      f+3     :     0.005356
      f-3     :     0.011369

  6 H s       :     0.863677  s :     0.863677
      pz      :     0.006504  p :     0.020801
      px      :     0.007376
      py      :     0.006922

  7 H s       :     0.876635  s :     0.876635
      pz      :     0.013339  p :     0.020945
      px      :     0.003332
      py      :     0.004273

  8 H s       :     0.863685  s :     0.863685
      pz      :     0.006510  p :     0.020801
      px      :     0.007372
      py      :     0.006919

  9 H s       :     0.876654  s :     0.876654
      pz      :     0.013336  p :     0.020944
      px      :     0.003335
      py      :     0.004272



                     *******************************
                     * LOEWDIN POPULATION ANALYSIS *
                     *******************************

----------------------
LOEWDIN ATOMIC CHARGES
----------------------
   0 O :    0.256251
   1 O :    0.256256
   2 O :    0.088411
   3 C :   -0.287094
   4 C :   -0.287133
   5 C :   -0.550534
   6 H :    0.133626
   7 H :    0.128290
   8 H :    0.133633
   9 H :    0.128294

-------------------------------
LOEWDIN REDUCED ORBITAL CHARGES
-------------------------------
  0 O s       :     3.277931  s :     3.277931
      pz      :     1.591045  p :     4.353085
      px      :     1.272140
      py      :     1.489900
      dz2     :     0.012039  d :     0.105280
      dxz     :     0.017214
      dyz     :     0.008242
      dx2y2   :     0.028782
      dxy     :     0.039002
      f0      :     0.000560  f :     0.007454
      f+1     :     0.000846
      f-1     :     0.000478
      f+2     :     0.000628
      f-2     :     0.000780
      f+3     :     0.002114
      f-3     :     0.002049

  1 O s       :     3.277923  s :     3.277923
      pz      :     1.591096  p :     4.353083
      px      :     1.272058
      py      :     1.489929
      dz2     :     0.012034  d :     0.105285
      dxz     :     0.017214
      dyz     :     0.008239
      dx2y2   :     0.028782
      dxy     :     0.039016
      f0      :     0.000560  f :     0.007454
      f+1     :     0.000845
      f-1     :     0.000477
      f+2     :     0.000628
      f-2     :     0.000779
      f+3     :     0.002115
      f-3     :     0.002049

  2 O s       :     3.425160  s :     3.425160
      pz      :     1.348824  p :     4.417886
      px      :     1.459802
      py      :     1.609260
      dz2     :     0.008508  d :     0.062732
      dxz     :     0.014702
      dyz     :     0.000106
      dx2y2   :     0.026604
      dxy     :     0.012811
      f0      :     0.000471  f :     0.005810
      f+1     :     0.001043
      f-1     :     0.000077
      f+2     :     0.000860
      f-2     :     0.000051
      f+3     :     0.002025
      f-3     :     0.001283

  3 C s       :     2.802662  s :     2.802662
      pz      :     1.049066  p :     2.902814
      px      :     0.822223
      py      :     1.031526
      dz2     :     0.097511  d :     0.507510
      dxz     :     0.106362
      dyz     :     0.066552
      dx2y2   :     0.109761
      dxy     :     0.127324
      f0      :     0.008709  f :     0.074108
      f+1     :     0.007141
      f-1     :     0.004724
      f+2     :     0.012582
      f-2     :     0.008107
      f+3     :     0.016574
      f-3     :     0.016270

  4 C s       :     2.802666  s :     2.802666
      pz      :     1.049135  p :     2.902825
      px      :     0.822200
      py      :     1.031491
      dz2     :     0.097402  d :     0.507527
      dxz     :     0.106466
      dyz     :     0.066551
      dx2y2   :     0.109782
      dxy     :     0.127325
      f0      :     0.008714  f :     0.074115
      f+1     :     0.007135
      f-1     :     0.004728
      f+2     :     0.012572
      f-2     :     0.008102
      f+3     :     0.016588
      f-3     :     0.016277

  5 C s       :     2.750856  s :     2.750856
      pz      :     0.782640  p :     2.584323
      px      :     0.947768
      py      :     0.853916
      dz2     :     0.080391  d :     1.035000
      dxz     :     0.192350
      dyz     :     0.122618
      dx2y2   :     0.269998
      dxy     :     0.369643
      f0      :     0.010367  f :     0.180354
      f+1     :     0.013531
      f-1     :     0.010670
      f+2     :     0.021245
      f-2     :     0.023166
      f+3     :     0.034124
      f-3     :     0.067251

  6 H s       :     0.808370  s :     0.808370
      pz      :     0.020202  p :     0.058004
      px      :     0.019519
      py      :     0.018283

  7 H s       :     0.813244  s :     0.813244
      pz      :     0.036355  p :     0.058466
      px      :     0.009732
      py      :     0.012379

  8 H s       :     0.808368  s :     0.808368
      pz      :     0.020217  p :     0.057999
      px      :     0.019506
      py      :     0.018276

  9 H s       :     0.813248  s :     0.813248
      pz      :     0.036346  p :     0.058458
      px      :     0.009737
      py      :     0.012375



                      *****************************
                      * MAYER POPULATION ANALYSIS *
                      *****************************

  NA   - Mulliken gross atomic population
  ZA   - Total nuclear charge
  QA   - Mulliken gross atomic charge
  VA   - Mayer's total valence
  BVA  - Mayer's bonded valence
  FA   - Mayer's free valence

  ATOM       NA         ZA         QA         VA         BVA        FA
  0 O      8.2438     8.0000    -0.2438     2.1158     2.1158    -0.0000
  1 O      8.2438     8.0000    -0.2438     2.1158     2.1158    -0.0000
  2 O      8.3043     8.0000    -0.3043     2.2051     2.2051     0.0000
  3 C      6.0110     6.0000    -0.0110     3.8805     3.8805     0.0000
  4 C      6.0110     6.0000    -0.0110     3.8805     3.8805     0.0000
  5 C      5.6221     6.0000     0.3779     4.4729     4.4729    -0.0000
  6 H      0.8845     1.0000     0.1155     0.9585     0.9585     0.0000
  7 H      0.8976     1.0000     0.1024     0.9621     0.9621     0.0000
  8 H      0.8845     1.0000     0.1155     0.9585     0.9585     0.0000
  9 H      0.8976     1.0000     0.1024     0.9621     0.9621     0.0000

  Mayer bond orders larger than 0.100000
B(  0-O ,  3-C ) :   0.9389 B(  0-O ,  5-C ) :   1.1386 B(  1-O ,  4-C ) :   0.9389 
B(  1-O ,  5-C ) :   1.1385 B(  2-O ,  5-C ) :   2.1286 B(  3-C ,  4-C ) :   0.9933 
B(  3-C ,  6-H ) :   0.9557 B(  3-C ,  7-H ) :   0.9604 B(  4-C ,  8-H ) :   0.9557 
B(  4-C ,  9-H ) :   0.9605 

-------
TIMINGS
-------

Total SCF time: 0 days 0 hours 0 min 6 sec 

Total time                  ....       6.915 sec
Sum of individual times     ....       6.713 sec  ( 97.1%)

SCF preparation             ....       0.993 sec  ( 14.4%)
Fock matrix formation       ....       4.311 sec  ( 62.3%)
  Startup                   ....       0.261 sec  (  6.1% of F)
  Split-RI-J                ....       0.627 sec  ( 14.5% of F)
  Chain of spheres X        ....       2.067 sec  ( 47.9% of F)
  XC integration            ....       1.000 sec  ( 23.2% of F)
    Basis function eval.    ....       0.083 sec  (  8.3% of XC)
    Density eval.           ....       0.055 sec  (  5.5% of XC)
    XC-Functional eval.     ....       0.018 sec  (  1.8% of XC)
    XC-Potential eval.      ....       0.107 sec  ( 10.7% of XC)
Diagonalization             ....       0.000 sec  (  0.0%)
Density matrix formation    ....       0.453 sec  (  6.5%)
Total Energy calculation    ....       0.232 sec  (  3.4%)
Population analysis         ....       0.064 sec  (  0.9%)
Orbital Transformation      ....       0.075 sec  (  1.1%)
Orbital Orthonormalization  ....       0.000 sec  (  0.0%)
DIIS solution               ....       0.366 sec  (  5.3%)
SOSCF solution              ....       0.220 sec  (  3.2%)
Finished LeanSCF after   7.0 sec

Maximum memory used throughout the entire LEANSCF-calculation: 17.9 MB


-------------------------------------------------------------------------------
                          DFT DISPERSION CORRECTION                            
                                                                               
                              DFTD3 V3.1  Rev 1                                
                          USING Becke-Johnson damping                          
-------------------------------------------------------------------------------
The B3LYP functional is recognized
Active option DFTDOPT                   ...         4   

molecular C6(AA) [au] = 920.758015 


            DFT-D V3
 parameters
 s6 scaling factor         :     1.0000 
 a1 scaling factor         :     0.3981 
 s8 scaling factor         :     1.9889 
 a2 scaling factor         :     4.4211 
 ad hoc parameters k1-k3   :    16.0000     1.3333    -4.0000 

 Edisp/kcal,au: -7.330253901137  -0.011681501909 
 E6   /kcal   :  -3.517431596 
 E8   /kcal   :  -3.812822305 
 % E8         :  52.014873656 

-------------------------   ----------------
Dispersion correction           -0.011681502
-------------------------   ----------------


-------------------------   --------------------
FINAL SINGLE POINT ENERGY      -342.381972733802
-------------------------   --------------------

--------------------------------------------------------------------------
By default, for Open MPI 4.0 and later, infiniband ports on a device
are not used by default.  The intent is to use UCX for these devices.
You can override this policy by setting the btl_openib_allow_ib MCA parameter
to true.

  Local host:              psid07
  Local adapter:           mlx4_0
  Local port:              1

--------------------------------------------------------------------------
--------------------------------------------------------------------------
WARNING: There was an error initializing an OpenFabrics device.

  Local host:   psid07
  Local device: mlx4_0
--------------------------------------------------------------------------
[psid07:172208] [[56281,0],0] ORTE_ERROR_LOG: Data unpack would read past end of buffer in file util/show_help.c at line 507


           ************************************************************
           *        Program running with 32 parallel MPI-processes    *
           *              working on a common directory               *
           ************************************************************
------------------------------------------------------------------------------
                         ORCA SCF GRADIENT CALCULATION
------------------------------------------------------------------------------

Nuc. rep. gradient        (SHARK) ... done (  0.0 sec)
HCore & Overlap gradient  (SHARK) ... done (  0.0 sec)
Split-RIJ-J gradient      (SHARK) ... done (  0.2 sec)
COSX-gradient                     ... done (  1.1 sec)
XC gradient                       ... done (  0.2 sec)
Dispersion correction             ... done (  0.0 sec)

-------------------
DISPERSION GRADIENT
-------------------

   1   O   :    0.000088544    0.000182704   -0.000001202
   2   O   :    0.000088495   -0.000182736    0.000001071
   3   O   :    0.000450100   -0.000000041    0.000000018
   4   C   :   -0.000186179    0.000118707    0.000025549
   5   C   :   -0.000186213   -0.000118681   -0.000025526
   6   C   :    0.000378896   -0.000000033   -0.000000099
   7   H   :   -0.000177320    0.000180077   -0.000040400
   8   H   :   -0.000139440    0.000141389    0.000146763
   9   H   :   -0.000177340   -0.000180038    0.000040516
  10   H   :   -0.000139544   -0.000141347   -0.000146690

Difference to translation invariance:
           :    0.0000000000   -0.0000000000   -0.0000000000

Difference to rotation invariance:
           :   -0.0000000000    0.0000000000   -0.0000000000

Norm of the Dispersion gradient    ...    0.0008833850
RMS gradient                       ...    0.0001612833
MAX gradient                       ...    0.0004501002

------------------
CARTESIAN GRADIENT
------------------

   1   O   :   -0.012334520    0.009330452    0.000601143
   2   O   :   -0.012376378   -0.009327030   -0.000575853
   3   O   :    0.055369146    0.000015472    0.000081800
   4   C   :    0.015247748   -0.012323205   -0.003246812
   5   C   :    0.015277119    0.012310658    0.003282878
   6   C   :   -0.053044765   -0.000005800   -0.000128373
   7   H   :   -0.004710052   -0.001141185   -0.000933794
   8   H   :    0.000646424    0.000482902    0.000910402
   9   H   :   -0.004723565    0.001139990    0.000950481
  10   H   :    0.000648844   -0.000482255   -0.000941872

Difference to translation invariance:
           :    0.0000000000   -0.0000000000    0.0000000000

Difference to rotation invariance:
           :   -0.0000885992   -0.0000000010    0.0000002593

Norm of the Cartesian gradient     ...    0.0848650883
RMS gradient                       ...    0.0154941744
MAX gradient                       ...    0.0553691457

-------
TIMINGS
-------

Total SCF gradient time     ....        1.534 sec

Densities                   ....       0.001 sec  (  0.0%)
One electron gradient       ....       0.015 sec  (  1.0%)
RI-J Coulomb gradient       ....       0.215 sec  ( 14.0%)
COSX gradient               ....       1.107 sec  ( 72.1%)
XC gradient                 ....       0.151 sec  (  9.8%)

Maximum memory used throughout the entire SCFGRAD-calculation: 30.5 MB
[psid07:172208] 31 more processes have sent help message help-mpi-btl-openib.txt / ib port not selected
[psid07:172208] Set MCA parameter "orte_base_help_aggregate" to 0 to see all help / error messages
[psid07:172208] 30 more processes have sent help message help-mpi-btl-openib.txt / error in device init
------------------------------------------------------------------------------
                         ORCA GEOMETRY RELAXATION STEP
------------------------------------------------------------------------------

Reading the OPT-File                    .... done
Getting information on internals        .... done
Copying old internal coords+grads       .... done
Making the new internal coordinates     .... (2022 redundants) done
Validating the new internal coordinates .... (2022 redundants) done
Calculating the B-matrix                .... done
Calculating the G,G- and P matrices     .... done
Transforming gradient to internals      .... done
Projecting the internal gradient        .... done
Number of atoms                         ....  10
Number of internal coordinates          ....  43
Current Energy                          ....  -342.381972734 Eh
Current gradient norm                   ....     0.084865088 Eh/bohr
Maximum allowed component of the step   ....  0.300
Current trust radius                    ....  0.300
Evaluating the initial hessian          ....  (Almloef) done
Projecting the Hessian                  .... done
Forming the augmented Hessian           .... done
Diagonalizing the augmented Hessian     .... done
Last element of RFO vector              ....  0.990879568
Lowest eigenvalues of augmented Hessian:
 -0.004878076  0.020834098  0.024535666  0.026882753  0.104048791
Length of the computed step             ....  0.135990740
The final length of the internal step   ....  0.135990740
Converting the step to Cartesian space:
 Initial RMS(Int)=    0.0207383934
Transforming coordinates:
 Iter   0:  RMS(Cart)=    0.0230535584 RMS(Int)=    0.0207839393
done
Storing new coordinates                 .... done

                                .--------------------.
          ----------------------|Geometry convergence|-------------------------
          Item                value                   Tolerance       Converged
          ---------------------------------------------------------------------
          RMS gradient        0.0092933483            0.0000300000      NO
          MAX gradient        0.0553691834            0.0001000000      NO
          RMS step            0.0207383934            0.0006000000      NO
          MAX step            0.0534032967            0.0010000000      NO
          ........................................................
          Max(Bonds)      0.0281      Max(Angles)    1.12
          Max(Dihed)        3.06      Max(Improp)    0.00
          ---------------------------------------------------------------------

The optimization has not yet converged - more geometry cycles are needed


    ---------------------------------------------------------------------------
                         Redundant Internal Coordinates
                            (Angstroem and degrees)

        Definition                    Value    dE/dq     Step     New-Value
    ----------------------------------------------------------------------------
     1. B(C   3,O   0)                1.4199 -0.009991  0.0114    1.4314   
     2. B(C   4,C   3)                1.4951 -0.011115  0.0154    1.5105   
     3. B(C   4,O   1)                1.4199 -0.009895  0.0114    1.4312   
     4. B(C   5,O   2)                1.2219  0.055369 -0.0281    1.1938   
     5. B(C   5,O   1)                1.3682  0.006455 -0.0071    1.3611   
     6. B(C   5,O   0)                1.3682  0.006356 -0.0070    1.3612   
     7. B(H   6,C   3)                1.0932  0.002979 -0.0044    1.0888   
     8. B(H   7,C   3)                1.0950  0.000850 -0.0013    1.0938   
     9. B(H   8,C   4)                1.0932  0.002997 -0.0044    1.0888   
    10. B(H   9,C   4)                1.0951  0.000879 -0.0013    1.0938   
    11. A(C   3,O   0,C   5)          107.01 -0.005910    1.12    108.14   
    12. A(C   4,O   1,C   5)          107.02 -0.005664    1.09    108.11   
    13. A(O   0,C   3,H   6)          110.97 -0.000988   -0.58    110.38   
    14. A(O   0,C   3,H   7)          108.48 -0.000119    0.12    108.60   
    15. A(O   0,C   3,C   4)          102.87  0.005456   -0.53    102.34   
    16. A(C   4,C   3,H   7)          112.48 -0.000885   -0.06    112.41   
    17. A(H   6,C   3,H   7)          109.22  0.000528    0.15    109.37   
    18. A(C   4,C   3,H   6)          112.63 -0.003717    0.82    113.46   
    19. A(C   3,C   4,H   8)          112.63 -0.003310    0.77    113.40   
    20. A(O   1,C   4,H   8)          110.97 -0.001094   -0.55    110.42   
    21. A(O   1,C   4,C   3)          102.87  0.005002   -0.47    102.40   
    22. A(H   8,C   4,H   9)          109.22  0.001401    0.01    109.23   
    23. A(C   3,C   4,H   9)          112.48 -0.000573   -0.08    112.39   
    24. A(O   1,C   4,H   9)          108.48 -0.001317    0.27    108.75   
    25. A(O   1,C   5,O   2)          124.68 -0.000412    0.14    124.82   
    26. A(O   0,C   5,O   2)          124.68 -0.000435    0.14    124.82   
    27. A(O   0,C   5,O   1)          110.64  0.000847   -0.28    110.36   
    28. D(C   4,C   3,O   0,C   5)    -25.33  0.000270    1.09    -24.24   
    29. D(H   6,C   3,O   0,C   5)   -146.01  0.001969    0.72   -145.30   
    30. D(H   7,C   3,O   0,C   5)     94.00  0.001994    0.80     94.80   
    31. D(H   8,C   4,C   3,H   7)     33.73  0.000927   -2.26     31.46   
    32. D(H   9,C   4,O   1,C   5)     94.02  0.001702    0.90     94.92   
    33. D(O   1,C   4,C   3,O   0)     30.70  0.003434   -1.90     28.80   
    34. D(H   8,C   4,O   1,C   5)   -145.98  0.001926    0.75   -145.24   
    35. D(O   1,C   4,C   3,H   7)    -85.81  0.000838   -1.71    -87.52   
    36. D(H   8,C   4,C   3,O   0)    150.24  0.003523   -2.45    147.78   
    37. D(H   8,C   4,C   3,H   6)    -90.23  0.003812   -3.06    -93.29   
    38. D(O   1,C   4,C   3,H   6)    150.24  0.003723   -2.51    147.73   
    39. D(C   3,C   4,O   1,C   5)    -25.30  0.000392    1.11    -24.19   
    40. D(O   0,C   5,O   1,C   4)     10.31 -0.000649   -0.40      9.91   
    41. D(O   2,C   5,O   0,C   3)   -169.61 -0.000574   -0.46   -170.06   
    42. D(O   1,C   5,O   0,C   3)     10.35 -0.000597   -0.34     10.01   
    43. D(O   2,C   5,O   1,C   4)   -169.73 -0.000671   -0.28   -170.01   
    ----------------------------------------------------------------------------

Geometry step timings:
Preparation and reading OPT file:      0.000 s (14.233 %)
Internal coordinates            :      0.000 s ( 0.745 %)
B/P matrices and projection     :      0.000 s ( 9.966 %)
Hessian update/contruction      :      0.001 s (30.498 %)
Making the step                 :      0.000 s ( 8.534 %)
Converting the step to Cartesian:      0.000 s ( 1.976 %)
Storing new data                :      0.000 s (12.973 %)
Checking convergence            :      0.000 s ( 0.115 %)
Final printing                  :      0.001 s (20.647 %)
Total time                      :      0.003 s
--------------------------------------------------------------------------
By default, for Open MPI 4.0 and later, infiniband ports on a device
are not used by default.  The intent is to use UCX for these devices.
You can override this policy by setting the btl_openib_allow_ib MCA parameter
to true.

  Local host:              psid07
  Local adapter:           mlx4_0
  Local port:              1

--------------------------------------------------------------------------
--------------------------------------------------------------------------
WARNING: There was an error initializing an OpenFabrics device.

  Local host:   psid07
  Local device: mlx4_0
--------------------------------------------------------------------------
[psid07:172317] 31 more processes have sent help message help-mpi-btl-openib.txt / ib port not selected
[psid07:172317] Set MCA parameter "orte_base_help_aggregate" to 0 to see all help / error messages
[psid07:172317] 31 more processes have sent help message help-mpi-btl-openib.txt / error in device init

Time for energy+gradient        :     13.234 s
Time for complete geometry iter :     14.389 s

         *************************************************************
         *                GEOMETRY OPTIMIZATION CYCLE   2            *
         *************************************************************
---------------------------------
CARTESIAN COORDINATES (ANGSTROEM)
---------------------------------
  O     -0.006050    1.113026   -0.096070
  O     -0.005709   -1.113384    0.095933
  O      1.965191    0.000095    0.000048
  C     -1.360267    0.735308    0.172770
  C     -1.359759   -0.735225   -0.172493
  C      0.771395   -0.000036    0.000487
  H     -2.045793    1.323121   -0.435525
  H     -1.569197    0.915045    1.231272
  H     -2.045892   -1.322490    0.435651
  H     -1.571918   -0.914861   -1.230374

----------------------------
CARTESIAN COORDINATES (A.U.)
----------------------------
  NO LB      ZA    FRAG     MASS         X           Y           Z
   0 O     8.0000    0    15.999   -0.011433    2.103315   -0.181545
   1 O     8.0000    0    15.999   -0.010788   -2.103990    0.181287
   2 O     8.0000    0    15.999    3.713673    0.000180    0.000092
   3 C     6.0000    0    12.011   -2.570533    1.389530    0.326488
   4 C     6.0000    0    12.011   -2.569573   -1.389374   -0.325965
   5 C     6.0000    0    12.011    1.457725   -0.000068    0.000921
   6 H     1.0000    0     1.008   -3.865989    2.500337   -0.823023
   7 H     1.0000    0     1.008   -2.965353    1.729184    2.326766
   8 H     1.0000    0     1.008   -3.866175   -2.499143    0.823262
   9 H     1.0000    0     1.008   -2.970494   -1.728837   -2.325070

--------------------------------
INTERNAL COORDINATES (ANGSTROEM)
--------------------------------
 O      0   0   0     0.000000000000     0.00000000     0.00000000
 O      1   0   0     2.234673567285     0.00000000     0.00000000
 O      2   1   0     2.265717639267    60.45333319     0.00000000
 C      1   2   3     1.431380367102    73.80537645   189.86434769
 C      2   1   3     1.431261422690    73.76992939   189.83980605
 C      3   2   1     1.193796436480    29.54735522     0.04969465
 H      4   1   2     1.088803921239   110.38204100   220.63760914
 H      4   1   2     1.093792714953   108.60928571   100.73986267
 H      5   2   1     1.088805487856   110.42094088   220.64030350
 H      5   2   1     1.093796830721   108.75343247   100.79941832

---------------------------
INTERNAL COORDINATES (A.U.)
---------------------------
 O      0   0   0     0.000000000000     0.00000000     0.00000000
 O      1   0   0     4.222921040882     0.00000000     0.00000000
 O      2   1   0     4.281585835009    60.45333319     0.00000000
 C      1   2   3     2.704916887294    73.80537645   189.86434769
 C      2   1   3     2.704692114930    73.76992939   189.83980605
 C      3   2   1     2.255948324598    29.54735522     0.04969465
 H      4   1   2     2.057541224682   110.38204100   220.63760914
 H      4   1   2     2.066968678539   108.60928571   100.73986267
 H      5   2   1     2.057544185158   110.42094088   220.64030350
 H      5   2   1     2.066976456214   108.75343247   100.79941832

--------------------------------------------------------------------------
By default, for Open MPI 4.0 and later, infiniband ports on a device
are not used by default.  The intent is to use UCX for these devices.
You can override this policy by setting the btl_openib_allow_ib MCA parameter
to true.

  Local host:              psid07
  Local adapter:           mlx4_0
  Local port:              1

--------------------------------------------------------------------------
--------------------------------------------------------------------------
WARNING: There was an error initializing an OpenFabrics device.

  Local host:   psid07
  Local device: mlx4_0
--------------------------------------------------------------------------


           ************************************************************
           *        Program running with 32 parallel MPI-processes    *
           *              working on a common directory               *
           ************************************************************
------------------------------------------------------------------------------
                   ___                                                        
                  /   \      - P O W E R E D   B Y -                         
                 /     \                                                     
                 |  |  |   _    _      __       _____    __    __             
                 |  |  |  | |  | |    /  \     |  _  \  |  |  /  |          
                  \  \/   | |  | |   /    \    | | | |  |  | /  /          
                 / \  \   | |__| |  /  /\  \   | |_| |  |  |/  /          
                |  |  |   |  __  | /  /__\  \  |    /   |      \           
                |  |  |   | |  | | |   __   |  |    \   |  |\   \          
                \     /   | |  | | |  |  |  |  | |\  \  |  | \   \       
                 \___/    |_|  |_| |__|  |__|  |_| \__\ |__|  \__/        
                                                                              
                      - O R C A' S   B I G   F R I E N D -                    
                                      &                                       
                       - I N T E G R A L  F E E D E R -                       
                                                                              
 v1 FN, 2020, v2 2021, v3 2022-2024                                           
------------------------------------------------------------------------------


----------------------
SHARK INTEGRAL PACKAGE
----------------------

Number of atoms                             ...     10
Number of basis functions                   ...    210
Number of shells                            ...     82
Maximum angular momentum                    ...      3
Integral batch strategy                     ... SHARK/LIBINT Hybrid
RI-J (if used) integral strategy            ... SPLIT-RIJ (Revised 2003 algorithm where possible)
Printlevel                                  ...      1
Contraction scheme used                     ... SEGMENTED contraction
Prescreening option                         ... SCHWARTZ
   Thresh                                   ... 2.500e-11
   Tcut                                     ... 2.500e-12
   Tpresel                                  ... 2.500e-12 
Coulomb Range Separation                    ... NOT USED
[...]



                     *******************************
                     * LOEWDIN POPULATION ANALYSIS *
                     *******************************

----------------------
LOEWDIN ATOMIC CHARGES
----------------------
   0 O :    0.250149
   1 O :    0.250097
   2 O :    0.131110
   3 C :   -0.265563
   4 C :   -0.265529
   5 C :   -0.608980
   6 H :    0.128932
   7 H :    0.125426
   8 H :    0.128932
   9 H :    0.125427

-------------------------------
LOEWDIN REDUCED ORBITAL CHARGES
-------------------------------
  0 O s       :     3.275914  s :     3.275914
      pz      :     1.598965  p :     4.362268
      px      :     1.266644
      py      :     1.496659
      dz2     :     0.011531  d :     0.104397
      dxz     :     0.016212
      dyz     :     0.007965
      dx2y2   :     0.030414
      dxy     :     0.038275
      f0      :     0.000604  f :     0.007272
      f+1     :     0.000797
      f-1     :     0.000474
      f+2     :     0.000562
      f-2     :     0.000649
      f+3     :     0.002021
      f-3     :     0.002165

  1 O s       :     3.275929  s :     3.275929
      pz      :     1.599006  p :     4.362308
      px      :     1.266593
      py      :     1.496709
      dz2     :     0.011529  d :     0.104394
      dxz     :     0.016212
      dyz     :     0.007963
      dx2y2   :     0.030407
      dxy     :     0.038283
      f0      :     0.000604  f :     0.007272
      f+1     :     0.000796
      f-1     :     0.000474
      f+2     :     0.000561
      f-2     :     0.000649
      f+3     :     0.002022
      f-3     :     0.002164

  2 O s       :     3.396947  s :     3.396947
      pz      :     1.336502  p :     4.398192
      px      :     1.480597
      py      :     1.581093
      dz2     :     0.008685  d :     0.067042
      dxz     :     0.016475
      dyz     :     0.000155
      dx2y2   :     0.027077
      dxy     :     0.014649
      f0      :     0.000574  f :     0.006708
      f+1     :     0.001155
      f-1     :     0.000090
      f+2     :     0.001035
      f-2     :     0.000072
      f+3     :     0.002227
      f-3     :     0.001554

  3 C s       :     2.812954  s :     2.812954
      pz      :     1.065393  p :     2.901839
      px      :     0.807728
      py      :     1.028717
      dz2     :     0.080382  d :     0.481282
      dxz     :     0.111355
      dyz     :     0.064580
      dx2y2   :     0.108284
      dxy     :     0.116681
      f0      :     0.008353  f :     0.069488
      f+1     :     0.006778
      f-1     :     0.004572
      f+2     :     0.010879
      f-2     :     0.007148
      f+3     :     0.015873
      f-3     :     0.015886

  4 C s       :     2.812963  s :     2.812963
      pz      :     1.065417  p :     2.901823
      px      :     0.807713
      py      :     1.028692
      dz2     :     0.080339  d :     0.481259
      dxz     :     0.111381
      dyz     :     0.064585
      dx2y2   :     0.108280
      dxy     :     0.116673
      f0      :     0.008352  f :     0.069485
      f+1     :     0.006776
      f-1     :     0.004575
      f+2     :     0.010872
      f-2     :     0.007147
      f+3     :     0.015876
      f-3     :     0.015887

  5 C s       :     2.738968  s :     2.738968
      pz      :     0.782180  p :     2.601162
      px      :     0.961065
      py      :     0.857917
      dz2     :     0.078560  d :     1.077309
      dxz     :     0.201923
      dyz     :     0.129966
      dx2y2   :     0.274405
      dxy     :     0.392455
      f0      :     0.010882  f :     0.191541
      f+1     :     0.013480
      f-1     :     0.010811
      f+2     :     0.023368
      f-2     :     0.024714
      f+3     :     0.035489
      f-3     :     0.072797

  6 H s       :     0.811723  s :     0.811723
      pz      :     0.022820  p :     0.059345
      px      :     0.016843
      py      :     0.019682

  7 H s       :     0.815297  s :     0.815297
      pz      :     0.035892  p :     0.059278
      px      :     0.010627
      py      :     0.012759

  8 H s       :     0.811722  s :     0.811722
      pz      :     0.022828  p :     0.059346
      px      :     0.016839
      py      :     0.019679

  9 H s       :     0.815294  s :     0.815294
      pz      :     0.035888  p :     0.059279
      px      :     0.010632
      py      :     0.012758



                      *****************************
                      * MAYER POPULATION ANALYSIS *
                      *****************************

  NA   - Mulliken gross atomic population
  ZA   - Total nuclear charge
  QA   - Mulliken gross atomic charge
  VA   - Mayer's total valence
  BVA  - Mayer's bonded valence
  FA   - Mayer's free valence

  ATOM       NA         ZA         QA         VA         BVA        FA
  0 O      8.2517     8.0000    -0.2517     2.1117     2.1117     0.0000
  1 O      8.2517     8.0000    -0.2517     2.1117     2.1117     0.0000
  2 O      8.2647     8.0000    -0.2647     2.2397     2.2397    -0.0000
  3 C      6.0133     6.0000    -0.0133     3.8804     3.8804    -0.0000
  4 C      6.0133     6.0000    -0.0133     3.8804     3.8804    -0.0000
  5 C      5.6454     6.0000     0.3546     4.5176     4.5176     0.0000
  6 H      0.8851     1.0000     0.1149     0.9576     0.9576     0.0000
  7 H      0.8949     1.0000     0.1051     0.9578     0.9578    -0.0000
  8 H      0.8851     1.0000     0.1149     0.9576     0.9576    -0.0000
  9 H      0.8949     1.0000     0.1051     0.9578     0.9578    -0.0000

  Mayer bond orders larger than 0.100000
B(  0-O ,  3-C ) :   0.9443 B(  0-O ,  5-C ) :   1.1421 B(  1-O ,  4-C ) :   0.9442 
B(  1-O ,  5-C ) :   1.1421 B(  2-O ,  5-C ) :   2.1664 B(  3-C ,  4-C ) :   0.9852 
B(  3-C ,  6-H ) :   0.9599 B(  3-C ,  7-H ) :   0.9590 B(  4-C ,  8-H ) :   0.9599 
B(  4-C ,  9-H ) :   0.9590 

-------
TIMINGS
-------

Total SCF time: 0 days 0 hours 0 min 2 sec 

Total time                  ....       2.908 sec
Sum of individual times     ....       2.789 sec  ( 95.9%)

SCF preparation             ....       0.994 sec  ( 34.2%)
Fock matrix formation       ....       1.401 sec  ( 48.2%)
  Startup                   ....       0.102 sec  (  7.3% of F)
  Split-RI-J                ....       0.118 sec  (  8.4% of F)
  Chain of spheres X        ....       0.846 sec  ( 60.4% of F)
  XC integration            ....       0.254 sec  ( 18.1% of F)
    XC Preparation          ....       0.000 sec  (  0.0% of XC)
    Basis function eval.    ....       0.021 sec  (  8.3% of XC)
    Density eval.           ....       0.016 sec  (  6.1% of XC)
    XC-Functional eval.     ....       0.005 sec  (  1.8% of XC)
    XC-Potential eval.      ....       0.030 sec  ( 11.6% of XC)
Diagonalization             ....       0.000 sec  (  0.0%)
Density matrix formation    ....       0.082 sec  (  2.8%)
Total Energy calculation    ....       0.047 sec  (  1.6%)
Population analysis         ....       0.049 sec  (  1.7%)
Orbital Transformation      ....       0.061 sec  (  2.1%)
Orbital Orthonormalization  ....       0.000 sec  (  0.0%)
DIIS solution               ....       0.042 sec  (  1.4%)
SOSCF solution              ....       0.113 sec  (  3.9%)
Finished LeanSCF after   3.0 sec

Maximum memory used throughout the entire LEANSCF-calculation: 18.9 MB
[psid07:177421] 31 more processes have sent help message help-mpi-btl-openib.txt / ib port not selected
[psid07:177421] Set MCA parameter "orte_base_help_aggregate" to 0 to see all help / error messages
[psid07:177421] 30 more processes have sent help message help-mpi-btl-openib.txt / error in device init


-------------------------------------------------------------------------------
                          DFT DISPERSION CORRECTION                            
                                                                               
                              DFTD3 V3.1  Rev 1                                
                          USING Becke-Johnson damping                          
-------------------------------------------------------------------------------
The B3LYP functional is recognized
Active option DFTDOPT                   ...         4   

molecular C6(AA) [au] = 923.695337 


            DFT-D V3
 parameters
 s6 scaling factor         :     1.0000 
 a1 scaling factor         :     0.3981 
 s8 scaling factor         :     1.9889 
 a2 scaling factor         :     4.4211 
 ad hoc parameters k1-k3   :    16.0000     1.3333    -4.0000 

 Edisp/kcal,au: -7.301704776902  -0.011636005988 
 E6   /kcal   :  -3.502347432 
 E8   /kcal   :  -3.799357345 
 % E8         :  52.033839505 

-------------------------   ----------------
Dispersion correction           -0.011636006
-------------------------   ----------------


-------------------------   --------------------
FINAL SINGLE POINT ENERGY      -342.385924397934
-------------------------   --------------------

                                *** OPTIMIZATION RUN DONE ***

--------------------------------------------------------------------------
By default, for Open MPI 4.0 and later, infiniband ports on a device
are not used by default.  The intent is to use UCX for these devices.
You can override this policy by setting the btl_openib_allow_ib MCA parameter
to true.

  Local host:              psid07
  Local adapter:           mlx4_0
  Local port:              1

--------------------------------------------------------------------------
--------------------------------------------------------------------------
WARNING: There was an error initializing an OpenFabrics device.

  Local host:   psid07
  Local device: mlx4_0
--------------------------------------------------------------------------


           ************************************************************
           *        Program running with 32 parallel MPI-processes    *
           *              working on a common directory               *
           ************************************************************

------------------------------------------------------------------------------
                              ORCA PROPERTY CALCULATIONS
------------------------------------------------------------------------------

GBWName                                 ... EC.gbw
Number of atoms                         ...     10
Number of basis functions               ...    210
Max core memory                         ...   5000 MB

Electric properties:
Dipole moment                           ... YES
Quadrupole moment                       ...  NO
Static polarizability (Dipole/Dipole)   ...  NO
Static polarizability (Dipole/Quad.)    ...  NO
Static polarizability (Quad./Quad.)     ...  NO
Static polarizability (Velocity)        ...  NO

Atomic electric properties:
Dipole moment                           ...  NO
Quadrupole moment                       ...  NO
Static polarizability                   ...  NO

Choice of electric origin               ... Center of mass
Position of electric origin             ...     0.022186    -0.000043     0.000072

General magnetic properties:
Magnetizability                         ...  NO

EPR properties:
g-Tensor (aka g-matrix)                 ...  NO
Zero-Field splitting spin-orbit         ...  NO
Zero-field splitting spin-spin          ...  NO
Hyperfine couplings                     ...  NO (   0 nuclei)
Quadrupole couplings                    ...  NO (   0 nuclei)
Contact density                         ...  NO (   0 nuclei)

NMR properties:
Chemical shifts                         ...  NO (   0 nuclei)
Spin-rotation constants                 ...  NO (   0 nuclei)
Spin-spin couplings                     ...  NO (   0 nuclei,    0 pairs)

Choice of magnetic origin               ... GIAO
Position of magnetic origin             ...     0.000000     0.000000     0.000000

Properties with geometric perturbations:
SCF Hessian                             ...  NO
IR spectrum                             ...  NO
VCD spectrum                            ...  NO
X-ray spectroscopy properties:
SCF XES/XAS/RIXS spectra                ...  NO


-------------
DIPOLE MOMENT
-------------

Method             : SCF
Type of density    : Electron Density
Multiplicity       :   1
Irrep              :   0
Energy             :  -342.3742883919458109 Eh
Relativity type    : 
Basis              : AO
                                X                 Y                 Z
Electronic contribution:      4.697137008      -0.000466540      -0.000890794
Nuclear contribution   :     -6.830514278       0.000770451       0.001233937
                        -----------------------------------------
Total Dipole Moment    :     -2.133377270       0.000303911       0.000343143
                        -----------------------------------------
Magnitude (a.u.)       :      2.133377319
Magnitude (Debye)      :      5.422614204



--------------------
Rotational spectrum 
--------------------
 
Rotational constants in cm-1:             0.269226             0.128003             0.090343 
Rotational constants in MHz :          8071.180173          3837.424666          2708.410500 

Dipole components along the rotational axes: 
x,y,z [a.u.] :    -2.133377     0.000063    -0.000031 
x,y,z [Debye]:    -5.422614     0.000159    -0.000078 

 

Dipole moment calculation done in   0.0 sec 

Maximum memory used throughout the entire PROP-calculation: 9.9 MB
[psid07:177601] 31 more processes have sent help message help-mpi-btl-openib.txt / ib port not selected
[psid07:177601] Set MCA parameter "orte_base_help_aggregate" to 0 to see all help / error messages
[psid07:177601] 31 more processes have sent help message help-mpi-btl-openib.txt / error in device init
--------------------------------------------------------------------------
By default, for Open MPI 4.0 and later, infiniband ports on a device
are not used by default.  The intent is to use UCX for these devices.
You can override this policy by setting the btl_openib_allow_ib MCA parameter
to true.

  Local host:              psid07
  Local adapter:           mlx4_0
  Local port:              1

--------------------------------------------------------------------------
--------------------------------------------------------------------------
WARNING: There was an error initializing an OpenFabrics device.

  Local host:   psid07
  Local device: mlx4_0
--------------------------------------------------------------------------
[psid07:177706] 31 more processes have sent help message help-mpi-btl-openib.txt / ib port not selected
[psid07:177706] Set MCA parameter "orte_base_help_aggregate" to 0 to see all help / error messages
[psid07:177706] 31 more processes have sent help message help-mpi-btl-openib.txt / error in device init

--------------------------------
SUGGESTED CITATIONS FOR THIS RUN
--------------------------------

Below you find a list of papers that are relevant to this ORCA run
We neither can nor want to force you to cite these papers, but we appreciate if you do
You receive ORCA, which is the product of decades of hard work by many enthusiastic individuals, for free
The only thing we kindly ask in return is that you cite our papers,
We deeply appreciate it, if you show your appreciation for ORCA by not just citing the generic ORCA reference.

Please note that relegating all ORCA citations to the supporting information does *not* help us.
SI sections are not indexed - citations you put there will not count into any citation statistics
But we need these citations in order to attract the funding resources that allow us to do what we are doing

Therefore, if you are a happy ORCA user, please consider citing a few of the papers listed below in the main body of your paper

In addition to the list printed below, the program has created the file EC.bibtex that contains the list in bibtex format
You can import this file easily into all common literature databanks and citation aid programs


List of essential papers. We consider these as the minimum necessary citations

  1. Neese,F.
     Software update: the ORCA program system, version 5.0
     WIRES Comput. Molec. Sci., 2022 12(1)e1606
     doi.org/10.1002/wcms.1606

List of papers to cite with high priority. The work reported in these papers was absolutely
necessary for this run to complete.
Our perspective: the developers of density functionals and basis sets usually get cited in chemistry papers
Good! But without the algorithms to do something with them, the functionals or basis sets would not do anything.
Hence, in our opinion, the algorithm design and method developments papers are equally worthy of getting cited

  1. Neese,F.
     An improvement of the resolution of the identity approximation for the formation of the Coulomb matrix
     J. Comp. Chem., 2003 24(14)1740-1747
     doi.org/10.1002/jcc.10318
  2. Neese,F.; Wennmohs,F.; Hansen,A.; Becker,U.
     Efficient, approximate and parallel Hartree-Fock and hybrid DFT calculations. A 'chain-of-spheres' algorithm for the Hartree-Fock exchange
     Chem. Phys., 2009 356(1-3)98-109
     doi.org/10.1016/j.chemphys.2008.10.036
  3. Helmich-Paris,B.; de Souza,B.; Neese,F.; Izsák,R.
     An improved chain of spheres for exchange algorithm
     J. Chem. Phys., 2021 155 104109
     doi.org/doi: 10.1063/5.0058766.
  4. Neese,F.
     The SHARK Integral Generation and Digestion System
     J. Comp. Chem., 2022  1-16
     doi.org/10.1002/jcc.26942
  5. Grimme,S.; Antony,J.; Ehrlich,S.; Krieg,H.
     A consistent and accurate ab initio parametrization of density functional dispersion correction (DFT-D) for the 94 elements H-Pu
     J. Chem. Phys., 2010 132 154104
     doi.org/10.1063/1.3382344
  6. Grimme,S.; Ehrlich,S.; Goerigk,L.
     Effect of the damping function in dispersion corrected density functional theory
     J. Comput. Chem., 2011 32(7)1456-1465
     doi.org/10.1002/jcc.21759

List of suggested additional citations. These are papers that are important in the 'surrounding' of 
of this run, or papers that preceded the highly important papers. If you like your results we are grateful for a citation.

  1. Izsak,R.; Neese,F.
     An overlap fitted chain of spheres exchange method
     J. Chem. Phys., 2011 135 144105
     doi.org/10.1063/1.3646921
  2. Izsak,R.; Hansen,A.; Neese,F.
     The resolution of identity and chain of spheres approximations for the LPNO-CCSD singles Fock term
     Molec. Phys., 2012 110 2413-2417
     doi.org/10.1080/00268976.2012.687466
  3. Neese,F.
     The ORCA program system
     WIRES Comput. Molec. Sci., 2012 2(1)73-78
     doi.org/10.1002/wcms.81
  4. Izsak,R.; Neese,F.; Klopper,W.
     Robust fitting techniques in the chain of spheres approximation to the Fock exchange: The role of the complementary space
     J. Chem. Phys., 2013 139 
     doi.org/10.1063/1.4819264
  5. Neese,F.
     Software update: the ORCA program system, version 4.0
     WIRES Comput. Molec. Sci., 2018 8(1)1-6
     doi.org/10.1002/wcms.1327
  6. Neese,F.; Wennmohs,F.; Becker,U.; Riplinger,C.
     The ORCA quantum chemistry program package
     J. Chem. Phys., 2020 152 Art. No. L224108
     doi.org/10.1063/5.0004608

List of optional additional citations

  1. Neese,F.
     Approximate second-order SCF convergence for spin unrestricted wavefunctions
     Chem. Phys. Lett., 2000 325(1-3)93-98
     doi.org/10.1016/s0009-2614(00)00662-x

Timings for individual modules:

Sum of individual times          ...      110.432 sec (=   1.841 min)
Startup calculation              ...       18.207 sec (=   0.303 min)  16.5 %
SCF iterations                   ...       67.520 sec (=   1.125 min)  61.1 %
Property calculations            ...        0.992 sec (=   0.017 min)   0.9 %
SCF Gradient evaluation          ...       23.646 sec (=   0.394 min)  21.4 %
Geometry relaxation              ...        0.067 sec (=   0.001 min)   0.1 %
                             ****ORCA TERMINATED NORMALLY****
TOTAL RUN TIME: 0 days 0 hours 2 minutes 6 seconds 43 msec
