[Molden Format]
[Title]
 Molden file created by orca_2mkl for BaseName=input

[Atoms] AU
Li   1   3         -5.7751600051         4.5524967302        -3.2633233167 
F    2   9         -2.7874664513        11.0538322230        -1.1922927499 
P    3  15         -4.5137805634         9.1801358311         0.3447269376 
O    4   8         -4.6905843805         6.8077140180        -1.1717542584 
O    5   8         -6.7589662458        10.5001839137         1.3043367411 
F    6   9         -2.6124069220         8.6265953658         2.5639656879 
[GTO]
  1 0
s   6 1.0 
     6269.2628010000         0.2601467437
      940.3161243100         0.4858358392
      214.2210752800         0.8341193254
       60.7598401840         1.3244574254
       19.9151520320         1.8815769487
        7.3171509797         2.1952005029
s   2 1.0 
        2.9724674216         0.7262181058
        1.2639852314         0.4944919164
s   1 1.0 
        0.5142748995         0.4328192700
s   1 1.0 
        0.0770308859         0.1042098478
s   1 1.0 
        0.0289388964         0.0500059366
p   1 1.0 
        0.4000000000         0.4534350390
p   1 1.0 
        0.0600000000         0.0423281367
p   1 1.0 
        3.3270000000         6.4048076130

  2 0
s   6 1.0 
    35479.1004410000         1.0351654302
     5318.4728983000         1.9331170875
     1210.4810975000         3.3081679067
      342.8551814000         5.1904360265
      112.0194318100         7.1453715076
       40.7147402480         7.7853597648
s   2 1.0 
       16.0396781110         3.6156464853
        6.5038186740         1.1649992517
s   1 1.0 
        1.5440477509         0.9872011158
s   1 1.0 
        0.6122345286         0.4932856214
s   1 1.0 
        0.2402797970         0.2445952588
p   4 1.0 
       80.2339004830         4.2174077507
       18.5940107430         4.7174264054
        5.6867902653         4.0849101385
        1.9511006294         2.2998974220
p   1 1.0 
        0.6697021130         0.8635593174
p   1 1.0 
        0.2165130041         0.2105208284
d   1 1.0 
        3.1070000000        20.7284714039
d   1 1.0 
        0.8550000000         2.1672588463
f   1 1.0 
        1.9170000000        24.6547062912

  3 0
s   7 1.0 
    52426.9992330000         1.3212792146
     7863.2660552000         2.4617576015
     1789.5227333000         4.1682597561
      506.2730016500         6.3159100221
      164.6069854600         7.8855635848
       58.3919187220         6.7611895652
       21.6436632010         2.4503453444
s   3 1.0 
       99.0138376200         1.9732022792
       30.5504398170         3.5685473278
        5.4537087661        -3.0179252192
s   2 1.0 
        2.6503362563         1.0100297906
        1.2726688867         0.2897277443
s   1 1.0 
        0.3164500520         0.3007038377
s   1 1.0 
        0.1141746694         0.1399869058
p   5 1.0 
      472.2721924800        11.4356014241
      111.5888275600        14.8375861284
       35.4459364180        16.0017708610
       12.9907768750        12.8297404423
        5.0486221658         6.5532023278
p   1 1.0 
        1.9934049566         3.3762492844
p   1 1.0 
        0.6652728443         0.8564259801
p   1 1.0 
        0.2551683213         0.2585077297
p   1 1.0 
        0.0903577623         0.0706149932
d   2 1.0 
        3.1200000000         3.8292136668
        0.6480000000         1.2233911243
d   1 1.0 
        0.2180000000         0.1982754514
f   1 1.0 
        0.4520000000         0.9551279577

  4 0
s   6 1.0 
    27032.3826310000         0.8598581479
     4052.3871392000         1.6055305368
      922.3272271000         2.7458778516
      261.2407098900         4.2987674426
       85.3546413510         5.8797663284
       31.0350352450         6.3163983216
s   2 1.0 
       12.2608607280         2.9812147522
        4.9987076005         0.9419559635
s   1 1.0 
        1.1703108158         0.8019291610
s   1 1.0 
        0.4647474099         0.4011648062
s   1 1.0 
        0.1850453636         0.2010799406
p   4 1.0 
       63.2749548010         3.0572017144
       14.6270493790         3.3844839414
        4.4501223456         2.9474262132
        1.5275799647         1.7118271494
p   1 1.0 
        0.5293511794         0.6436057926
p   1 1.0 
        0.1747842127         0.1610897254
d   1 1.0 
        2.3140000000        12.3767310624
d   1 1.0 
        0.6450000000         1.3234257612
f   1 1.0 
        1.4280000000        12.7097950062

  5 0
s   6 1.0 
    27032.3826310000         0.8598581479
     4052.3871392000         1.6055305368
      922.3272271000         2.7458778516
      261.2407098900         4.2987674426
       85.3546413510         5.8797663284
       31.0350352450         6.3163983216
s   2 1.0 
       12.2608607280         2.9812147522
        4.9987076005         0.9419559635
s   1 1.0 
        1.1703108158         0.8019291610
s   1 1.0 
        0.4647474099         0.4011648062
s   1 1.0 
        0.1850453636         0.2010799406
p   4 1.0 
       63.2749548010         3.0572017144
       14.6270493790         3.3844839414
        4.4501223456         2.9474262132
        1.5275799647         1.7118271494
p   1 1.0 
        0.5293511794         0.6436057926
p   1 1.0 
        0.1747842127         0.1610897254
d   1 1.0 
        2.3140000000        12.3767310624
d   1 1.0 
        0.6450000000         1.3234257612
f   1 1.0 
        1.4280000000        12.7097950062

  6 0
s   6 1.0 
    35479.1004410000         1.0351654302
     5318.4728983000         1.9331170875
     1210.4810975000         3.3081679067
      342.8551814000         5.1904360265
      112.0194318100         7.1453715076
       40.7147402480         7.7853597648
s   2 1.0 
       16.0396781110         3.6156464853
        6.5038186740         1.1649992517
s   1 1.0 
        1.5440477509         0.9872011158
s   1 1.0 
        0.6122345286         0.4932856214
s   1 1.0 
        0.2402797970         0.2445952588
p   4 1.0 
       80.2339004830         4.2174077507
       18.5940107430         4.7174264054
        5.6867902653         4.0849101385
        1.9511006294         2.2998974220
p   1 1.0 
        0.6697021130         0.8635593174
p   1 1.0 
        0.2165130041         0.2105208284
d   1 1.0 
        3.1070000000        20.7284714039
d   1 1.0 
        0.8550000000         2.1672588463
f   1 1.0 
        1.9170000000        24.6547062912

[5D]
[7F]
[9G]
[MO]
 Sym=     1a
 Ene= -7.71967837336634E+01
 Spin= Alpha
 Occup= 2.000000
  1       0.000005191605
  2      -0.000019902065
  3       0.000081191379
  4       0.000226292926
  5       0.000096640029
  6       0.000014820046
  7       0.000007468555
  8       0.000024859915
  9       0.000044542947
 10       0.000148561803
 11       0.000137887596
 12      -0.000000372218
 13       0.000000148972
 14      -0.000001948459
 15      -0.000008459281
 16       0.000034987982
 17      -0.000230939118
 18       0.000169534737
 19       0.001073391632
 20       0.000087595432
 21       0.000097059565
 22      -0.000088339190
 23      -0.000373608755
 24      -0.000411467798
 25       0.000374738015
 26      -0.000216600237
 27      -0.000299899593
 28       0.000170123936
 29       0.000010061275
 30       0.000057462497
 31       0.000060693451
 32       0.000007428519
 33      -0.000067652597
 34      -0.000041582248
 35      -0.000249108676
 36      -0.000267070870
 37      -0.000028077002
 38       0.000296847260
 39      -0.000035462520
 40      -0.000003791775
 41      -0.000023011516
 42      -0.000003443691
 43       0.000065147915
 44      -0.000038064435
 45       0.000032871261
 46      -0.998376163542
 47       0.031024168302
 48       0.012083644258
 49      -0.006104276861
 50      -0.004591455787
 51      -0.000071624319
 52      -0.000008775960
 53      -0.000002916712
 54      -0.000025347976
 55       0.000000394291
 56       0.000000844895
 57       0.000112168031
 58      -0.000065125258
 59      -0.000042476535
 60       0.001182532456
 61       0.000734246629
 62       0.000401381077
 63       0.000276407309
 64       0.000452237128
 65       0.000302752253
 66       0.000189893466
 67       0.000184871809
 68      -0.000438443637
 69       0.000038865960
 70       0.000243375699
 71       0.000433247093
 72       0.000451120484
 73      -0.001134550165
 74       0.000256395103
 75       0.000601670623
 76      -0.000101800632
 77      -0.000407406655
 78       0.000293482732
 79      -0.000986309576
 80       0.000836125140
 81       0.000015417874
 82       0.000923416032
 83      -0.000017235768
 84       0.000068433852
 85      -0.000721619199
 86       0.001815999014
 87       0.002984956364
 88      -0.000009432218
 89      -0.000200638533
 90      -0.000126026273
 91       0.000070015802
 92       0.001525483537
 93       0.000965978014
 94       0.000224557846
 95       0.001168675339
 96       0.000777430511
 97       0.000003311104
 98      -0.000002390842
 99      -0.000069820297
100       0.000060343342
101      -0.000004078076
102      -0.000039896266
103       0.000026118693
104       0.000690691564
105      -0.000570462741
106       0.000038839588
107      -0.000049935274
108       0.000017049544
109       0.000046101691
110      -0.000127062039
111      -0.000004616835
112       0.000012100943
113       0.000104689731
114      -0.000015045684
115       0.000060643975
116      -0.000713381521
117       0.002012938497
118       0.002470267664
119      -0.000199313084
120       0.000110107619
121       0.000080691460
122       0.001577992812
123      -0.000918581262
124      -0.000668533380
125       0.000690020460
126      -0.000421110206
127      -0.000313173490
128       0.000019324318
129       0.000035923732
130      -0.000019138982
131      -0.000021396715
132       0.000049292179
133      -0.000252662301
134      -0.000432294242
135       0.000247734382
136       0.000278704969
137      -0.000599420545
138       0.000075739061
139      -0.000005957767
140       0.000024026971
141      -0.000050596190
142       0.000077255841
143       0.000029019197
144       0.000126152399
145      -0.000008765264
146       0.000036246812
147      -0.000239457484
148       0.000193094330
149       0.001031760547
150       0.000097640832
151      -0.000036314404
152       0.000118871687
153      -0.000416596750
154       0.000154444574
155      -0.000504372992
156      -0.000227420925
157       0.000016654408
158      -0.000324240758
159      -0.000037374618
160      -0.000089231416
161       0.000025216842
162      -0.000033090119
163       0.000023250865
164       0.000160774122
165       0.000390385612
166      -0.000115046858
167       0.000146525562
168      -0.000100283401
169       0.000014585385
170      -0.000064549571
171       0.000029308697
172      -0.000045046172
173       0.000026286733
174       0.000017676197
175      -0.000016035889
 Sym=     1a
 Ene= -2.46994291369576E+01
 Spin= Alpha
 Occup= 2.000000
  1      -0.000009461245
  2       0.000045594123
  3      -0.000136502189
  4      -0.000086837683
  5      -0.000078583736
  6       0.000011339716
  7      -0.000038485457
  8      -0.000008383672
  9      -0.000097587806
 10      -0.000001156025
 11      -0.000155922037
 12      -0.000003473036
 13       0.000002530505
 14      -0.000002063353
 15      -0.006084684877
 16      -0.009261829589
 17      -0.000608708224
 18       0.000666168554
 19      -0.001127492622
 20      -0.000001340550
 21       0.000012852241
 22      -0.000016470888
 23       0.000007961491
 24      -0.000005968903
 25      -0.000004784476
 26      -0.000181851512
 27       0.000144453501
 28      -0.000205592865
 29      -0.000008914126
 30      -0.000017282234
 31       0.000022964033
 32      -0.000017059413
 33      -0.000012904854
 34       0.000000280063
 35       0.000053228712
 36      -0.000039774031
 37       0.000070533928
 38       0.000048402681
 39       0.000006276033
 40       0.000022498847
 41      -0.000003118523
 42       0.000010222564
 43      -0.000019117806
 44       0.000004188798
 45       0.000004730532
 46      -0.000050356502
 47       0.000154950873
 48       0.000373071981
 49      -0.000649357644
 50       0.007467606751
 51      -0.000047142223
 52       0.000021607756
 53      -0.000057788514
 54       0.000216669206
 55      -0.000100039532
 56       0.000264921581
 57      -0.000199090544
 58       0.000229817953
 59      -0.000321576686
 60      -0.000133291195
 61      -0.000667998655
 62       0.000344141887
 63       0.001452017005
 64      -0.000677583129
 65       0.001366181564
 66      -0.000189586570
 67      -0.000436630696
 68       0.000114995872
 69      -0.000169853090
 70       0.000134418184
 71      -0.000065302491
 72      -0.000212445346
 73       0.000597668334
 74      -0.000194043233
 75      -0.000381958337
 76       0.000090092892
 77      -0.000575957698
 78       0.000226814481
 79      -0.000261832901
 80       0.000139411990
 81       0.000149950858
 82      -0.000291292327
 83      -0.000002486053
 84       0.000014634588
 85      -0.000082840969
 86       0.000369952010
 87      -0.002695647704
 88      -0.000005502896
 89       0.000013070259
 90       0.000008381025
 91      -0.000033380870
 92      -0.000081097666
 93      -0.000139440548
 94      -0.000549838659
 95      -0.000882815348
 96      -0.000857151272
 97      -0.000006402799
 98      -0.000012850343
 99       0.000008529637
100      -0.000003061261
101       0.000017940303
102      -0.000044453657
103      -0.000026271312
104      -0.000100191321
105       0.000001630323
106      -0.000093281792
107      -0.000010077641
108       0.000002443172
109      -0.000025917943
110       0.000017451268
111      -0.000029015082
112       0.000009113097
113       0.000009374347
114      -0.000001529592
115       0.000009173902
116      -0.000050726839
117       0.000303724887
118      -0.002093981018
119       0.000022420580
120      -0.000013568571
121      -0.000014778556
122      -0.000145359834
123       0.000080579479
124      -0.000004361468
125      -0.000927488494
126       0.000347820789
127      -0.000211563388
128      -0.000017111008
129       0.000002203332
130      -0.000003929719
131       0.000009618283
132      -0.000003524166
133       0.000096084584
134      -0.000069671250
135       0.000038135504
136      -0.000075064527
137       0.000076418485
138       0.000032274205
139       0.000023586893
140       0.000000560464
141      -0.000004009654
142      -0.000002976061
143      -0.000007615378
144      -0.000025478980
145      -0.425282695399
146      -0.648937039211
147      -0.033264409195
148       0.019747695722
149      -0.010987391019
150       0.000656068276
151      -0.000197968483
152       0.000784999708
153      -0.000977766222
154       0.000291363312
155      -0.001169484171
156       0.001413279812
157      -0.000417274832
158       0.001743952500
159      -0.000026179107
160      -0.000071637893
161       0.000027454547
162      -0.000028518836
163       0.000010310078
164       0.000057883589
165       0.000171420654
166      -0.000067152097
167       0.000070537338
168      -0.000020792270
169       0.000008239457
170      -0.000048484895
171       0.000019314247
172      -0.000036817573
173       0.000021864879
174       0.000013270804
175      -0.000010216005
 Sym=     1a
 Ene= -2.46993153379874E+01
 Spin= Alpha
 Occup= 2.000000
  1       0.000006750909
  2      -0.000033251756
  3       0.000107670490
  4       0.000252265223
  5       0.000078772138
  6       0.000004033783
  7       0.000004621238
  8       0.000086227576
  9       0.000092394393
 10       0.000226897681
 11       0.000043645227
 12       0.000001175533
 13       0.000002261103
 14      -0.000009162970
 15       0.425282754551
 16       0.648936635901
 17       0.033270062164
 18      -0.019771794785
 19       0.011029028283
 20      -0.000594125714
 21      -0.000661152857
 22       0.000542995788
 23       0.000889138022
 24       0.000994220165
 25      -0.000804162145
 26      -0.001303778560
 27      -0.001504863857
 28       0.001181264227
 29      -0.000004591720
 30      -0.000037227823
 31      -0.000050328665
 32       0.000000223613
 33       0.000057502515
 34       0.000010091671
 35       0.000084573919
 36       0.000119092652
 37      -0.000005509667
 38      -0.000139247654
 39       0.000027742027
 40       0.000004653443
 41       0.000013059889
 42       0.000005457494
 43      -0.000050297440
 44       0.000027240212
 45      -0.000024651462
 46       0.000047279775
 47      -0.000145454984
 48      -0.000348910527
 49       0.000640576354
 50      -0.007803840196
 51       0.000041157055
 52       0.000045088814
 53      -0.000047748464
 54      -0.000188686286
 55      -0.000205778642
 56       0.000220052438
 57       0.000158670755
 58       0.000186245281
 59      -0.000367110376
 60       0.000213088769
 61       0.000054825016
 62       0.000806754930
 63      -0.001236343398
 64      -0.000886289056
 65       0.001439843064
 66      -0.000069594197
 67      -0.000310841670
 68      -0.000295163678
 69      -0.000051501274
 70       0.000322901141
 71       0.000246160426
 72       0.000315187403
 73      -0.000579760313
 74       0.000343890517
 75       0.000356713634
 76       0.000329581597
 77      -0.000022356233
 78       0.000270195270
 79      -0.000096721764
 80      -0.000492203425
 81       0.000376995198
 82      -0.000111032794
 83       0.000002180053
 84      -0.000012850882
 85       0.000068634365
 86      -0.000344972859
 87       0.002941571736
 88       0.000007164388
 89      -0.000016008303
 90      -0.000006535279
 91       0.000019147184
 92       0.000186437821
 93       0.000008220622
 94       0.000576456324
 95       0.001309259917
 96       0.000566029537
 97       0.000006607408
 98      -0.000018787900
 99      -0.000011609753
100       0.000001181950
101       0.000001781127
102      -0.000090738483
103       0.000062086166
104       0.000040759418
105      -0.000084185161
106       0.000064208510
107      -0.000010873655
108      -0.000025059349
109      -0.000020587102
110      -0.000001896280
111       0.000016547490
112       0.000005798101
113       0.000022145404
114       0.000001596650
115      -0.000009579689
116       0.000053890726
117      -0.000313164767
118       0.002180182342
119      -0.000025453327
120       0.000014863125
121       0.000006352940
122       0.000156256740
123      -0.000012681000
124      -0.000082351434
125       0.000906063087
126       0.000051258398
127      -0.000515807750
128      -0.000000023583
129       0.000007764726
130      -0.000004751986
131      -0.000019393177
132      -0.000002740911
133       0.000004989395
134      -0.000117166738
135       0.000004448203
136       0.000118531699
137       0.000042989136
138       0.000003841674
139       0.000010456057
140       0.000009291144
141      -0.000039914955
142       0.000016215689
143      -0.000008932428
144      -0.000017386598
145      -0.006079709253
146      -0.009299806534
147      -0.000342201716
148      -0.000105495729
149       0.000806578136
150       0.000017732092
151       0.000002521620
152       0.000002275810
153      -0.000031918943
154       0.000021642301
155      -0.000022244919
156       0.000204862719
157       0.000093937017
158      -0.000191109447
159      -0.000001307430
160       0.000003173164
161      -0.000028286274
162       0.000010111580
163       0.000020400788
164       0.000030329477
165      -0.000013625499
166       0.000056625896
167      -0.000050238174
168      -0.000069183951
169      -0.000009877537
170      -0.000016507123
171      -0.000002170659
172      -0.000008684414
173       0.000024155119
174      -0.000010335687
175      -0.000001017214
 Sym=     1a
 Ene= -1.91106120952546E+01
 Spin= Alpha
 Occup= 2.000000
  1      -0.000049540737
  2       0.000243553646
  3      -0.000275520857
  4       0.000765567042
  5      -0.000202088518
  6      -0.000090804800
  7      -0.000058391483
  8      -0.000111443985
  9       0.000166110189
 10       0.000305543397
 11       0.000306798008
 12       0.000021305244
 13       0.000024910608
 14       0.000031593557
 15      -0.000001506278
 16       0.000013480526
 17      -0.000102378706
 18       0.000364774047
 19      -0.001662674319
 20      -0.000011891187
 21       0.000005325051
 22       0.000035443910
 23       0.000074243693
 24       0.000045916838
 25      -0.000120709658
 26       0.000085485327
 27       0.000579705529
 28      -0.000093881476
 29       0.000005122314
 30       0.000010424452
 31      -0.000039211789
 32       0.000019168314
 33      -0.000016819334
 34       0.000002085175
 35      -0.000035392024
 36       0.000135557003
 37      -0.000038289951
 38       0.000028040189
 39       0.000007038619
 40      -0.000003487059
 41       0.000001203706
 42       0.000011588895
 43      -0.000004681450
 44      -0.000000582932
 45      -0.000012448680
 46      -0.000087308096
 47       0.000246058609
 48       0.000763472491
 49      -0.001799031896
 50       0.006431737607
 51      -0.000002853149
 52       0.000040507911
 53       0.000026700520
 54       0.000006626364
 55      -0.000299787263
 56      -0.000195832232
 57       0.000049116482
 58       0.000423121433
 59       0.000281036024
 60      -0.000544833043
 61       0.002953268800
 62       0.001894111279
 63       0.000048149364
 64      -0.001644272474
 65      -0.001024257837
 66       0.000071366856
 67      -0.000140859538
 68      -0.000860677316
 69       0.000685018769
 70      -0.000219125098
 71      -0.000282008039
 72      -0.000354713357
 73      -0.001222432491
 74       0.001697403167
 75      -0.000427336343
 76      -0.000546197185
 77       0.000240054340
 78       0.000179899674
 79      -0.000562080089
 80      -0.000236735011
 81       0.000174468624
 82       0.000213980713
 83      -0.435073620598
 84      -0.639648296988
 85      -0.034772739024
 86       0.023655289314
 87      -0.010870828248
 88      -0.000030608033
 89      -0.001252544371
 90      -0.000747388645
 91       0.000179664351
 92       0.002793872520
 93       0.001735810964
 94      -0.000094245648
 95      -0.001283517863
 96      -0.000748589377
 97       0.000005865277
 98      -0.000032263292
 99      -0.000215309653
100       0.000169501094
101      -0.000043642166
102      -0.000045000070
103       0.000101458435
104       0.000838801251
105      -0.000662443556
106       0.000146357854
107      -0.000099432480
108       0.000001842907
109       0.000049021394
110      -0.000165376071
111       0.000031979411
112       0.000029031080
113       0.000100535272
114       0.000088930335
115       0.000109802577
116       0.000235980636
117      -0.000584446623
118      -0.002447385657
119       0.000090918620
120      -0.000028625079
121      -0.000023287760
122      -0.000587913236
123       0.000294178362
124       0.000220142261
125      -0.000493885377
126       0.001053485738
127       0.000686297139
128       0.000002169400
129      -0.000017910951
130      -0.000005278199
131       0.000004247869
132      -0.000029431372
133       0.000051697050
134       0.000129205099
135      -0.000066994629
136      -0.000049136139
137       0.000190407399
138      -0.000006339204
139       0.000024944489
140       0.000003202907
141      -0.000001220234
142      -0.000019770714
143       0.000017937798
144       0.000003200321
145      -0.000001612321
146       0.000014810769
147      -0.000112754928
148       0.000389754086
149      -0.001688108960
150      -0.000012749243
151       0.000034557514
152      -0.000008263187
153       0.000078937682
154      -0.000088890249
155       0.000083610128
156       0.000123714375
157       0.000150598963
158       0.000548538819
159       0.000012092811
160      -0.000018818515
161      -0.000038067553
162       0.000021332389
163       0.000001311724
164      -0.000063270261
165       0.000035885362
166       0.000107708528
167      -0.000072443813
168      -0.000017706539
169       0.000003366139
170       0.000002004582
171      -0.000009864485
172       0.000014050196
173      -0.000002323898
174      -0.000005743588
175      -0.000007605541
 Sym=     1a
 Ene= -1.90895838524788E+01
 Spin= Alpha
 Occup= 2.000000
  1      -0.000001422829
  2       0.000005585363
  3       0.000019546901
  4       0.000146625138
  5       0.000023092824
  6       0.000134334770
  7      -0.000051381688
  8      -0.000012972992
  9      -0.000019083535
 10       0.000097054390
 11       0.000063697254
 12      -0.000017306423
 13       0.000007167997
 14       0.000002410060
 15       0.000001240958
 16      -0.000010020664
 17       0.000083396162
 18      -0.000367466829
 19       0.001701279686
 20      -0.000015108865
 21       0.000043620656
 22      -0.000012202319
 23       0.000010234660
 24      -0.000157770205
 25       0.000068349966
 26      -0.000638738800
 27       0.000056120418
 28       0.000484085901
 29      -0.000028564456
 30      -0.000014764998
 31       0.000008158825
 32       0.000004306837
 33      -0.000024097452
 34       0.000093680896
 35       0.000014918030
 36      -0.000034386682
 37       0.000011619146
 38       0.000085534385
 39       0.000002044862
 40      -0.000001214160
 41       0.000000453758
 42      -0.000004042782
 43       0.000011027504
 44       0.000000369421
 45       0.000010821751
 46       0.000084678183
 47      -0.000234324737
 48      -0.000763103619
 49       0.002009340657
 50      -0.008217753695
 51      -0.000035441033
 52       0.000023796078
 53       0.000017415507
 54       0.000290240865
 55      -0.000184936743
 56      -0.000134823748
 57      -0.000569915810
 58       0.000262550699
 59       0.000200811011
 60      -0.002347698993
 61       0.002273606514
 62       0.001573844498
 63       0.002315442503
 64      -0.001156405437
 65      -0.000834169451
 66      -0.000416240603
 67      -0.000580947734
 68       0.000281691085
 69       0.000549929355
 70      -0.000791435181
 71      -0.000384203086
 72      -0.001033666652
 73      -0.000145234473
 74       0.001000133270
 75      -0.001494380760
 76      -0.000698988003
 77       0.000073109447
 78      -0.000022101915
 79      -0.000107274528
 80      -0.000276004342
 81       0.000009929958
 82      -0.000496607431
 83       0.000084674478
 84       0.000146878731
 85      -0.000225806128
 86       0.000510839052
 87       0.002872318124
 88      -0.000045354379
 89      -0.000072007730
 90      -0.000041690679
 91       0.000158197652
 92       0.000551369978
 93       0.000337970348
 94      -0.000813702510
 95       0.001321133974
 96       0.000916214424
 97      -0.000012323849
 98      -0.000002900701
 99      -0.000018478173
100       0.000037059523
101       0.000001638083
102       0.000011339182
103      -0.000004161116
104       0.000207509775
105      -0.000202727204
106      -0.000020352225
107      -0.000024283619
108      -0.000010740871
109       0.000002109239
110      -0.000017022663
111       0.000013483271
112       0.000001080878
113      -0.000007130371
114       0.435073674902
115       0.639674673095
116       0.034782914600
117      -0.024078419976
118       0.011877789538
119       0.001460607454
120      -0.000849366868
121      -0.000618255492
122      -0.003045444524
123       0.001770164177
124       0.001288977985
125       0.001901472525
126      -0.001074088920
127      -0.000791885254
128      -0.000076725962
129      -0.000121505619
130       0.000062225771
131       0.000095409033
132      -0.000168974792
133       0.000336198569
134       0.000511181233
135      -0.000274663640
136      -0.000411852772
137       0.000706218282
138      -0.000104913332
139       0.000059229367
140      -0.000029077818
141       0.000072798985
142      -0.000130550435
143       0.000007067481
144      -0.000162746337
145       0.000001185524
146      -0.000009353155
147       0.000077718241
148      -0.000348681609
149       0.001654102045
150      -0.000012711220
151       0.000006831291
152       0.000045123156
153      -0.000000013604
154      -0.000004537418
155      -0.000169468756
156      -0.000651363220
157       0.000430479301
158      -0.000100662362
159       0.000000354562
160      -0.000018033225
161       0.000022730264
162       0.000021185513
163      -0.000020944077
164      -0.000017005034
165       0.000075892207
166      -0.000086370291
167      -0.000048386100
168       0.000041859966
169       0.000005759854
170      -0.000004741488
171       0.000003225389
172      -0.000006922240
173       0.000008439028
174       0.000003598841
175       0.000007670102
 Sym=     1a
 Ene= -6.66083680098558E+00
 Spin= Alpha
 Occup= 2.000000
  1       0.000028722602
  2      -0.000198349169
  3       0.000621095958
  4       0.001192279024
  5      -0.000000609701
  6       0.000199892974
  7       0.000228729527
  8       0.000309180299
  9       0.000154520595
 10       0.000370022219
 11       0.000403216437
 12      -0.000012581472
 13      -0.000010883693
 14      -0.000019168335
 15       0.000053561733
 16       0.000153838766
 17      -0.000495824150
 18      -0.000071665142
 19       0.004153416753
 20       0.000277900272
 21       0.000307052855
 22      -0.000266350704
 23      -0.000932302973
 24      -0.001032077204
 25       0.000919074361
 26      -0.001018431561
 27      -0.001330483524
 28       0.000913446154
 29       0.000022013124
 30       0.000112528747
 31       0.000118226970
 32       0.000012947429
 33      -0.000132579580
 34      -0.000104940540
 35      -0.000555460900
 36      -0.000585272621
 37      -0.000059146531
 38       0.000657248988
 39      -0.000007041201
 40       0.000012275925
 41      -0.000018507289
 42       0.000005685600
 43       0.000018377738
 44      -0.000013368526
 45       0.000024463627
 46       0.282243024387
 47       0.265317969652
 48      -0.781067486342
 49      -0.032934017595
 50      -0.013479411579
 51      -0.005437722124