
                                 *****************
                                 * O   R   C   A *
                                 *****************

                                            #,                                       
                                            ###                                      
                                            ####                                     
                                            #####                                    
                                            ######                                   
                                           ########,                                 
                                     ,,################,,,,,                         
                               ,,#################################,,                 
                          ,,##########################################,,             
                       ,#########################################, ''#####,          
                    ,#############################################,,   '####,        
                  ,##################################################,,,,####,       
                ,###########''''           ''''###############################       
              ,#####''   ,,,,##########,,,,          '''####'''          '####       
            ,##' ,,,,###########################,,,                        '##       
           ' ,,###''''                  '''############,,,                           
         ,,##''                                '''############,,,,        ,,,,,,###''
      ,#''                                            '''#######################'''  
     '                                                          ''''####''''         
             ,#######,   #######,   ,#######,      ##                                
            ,#'     '#,  ##    ##  ,#'     '#,    #''#        ,####,   ,####,        
            ##       ##  ##   ,#'  ##            #'  '#       #'       #'  '#        
            ##       ##  #######   ##           ,######,      #####,   #    #        
            '#,     ,#'  ##    ##  '#,     ,#' ,#      #,     #,   #   #,  ,#        
             '#######'   ##     ##  '#######'  #'      '#     '####' # '####'        



                #########################################################
                #                        -***-                          #
                #          Department of theory and spectroscopy        #
                #                                                       #
                #                      Frank Neese                      #
                #                                                       #
                #     Directorship, Architecture, Infrastructure        #
                #                    SHARK, DRIVERS                     #
                #        Core code/Algorithms in most modules           #
                #                                                       #
                #        Max Planck Institute fuer Kohlenforschung      #
                #                Kaiser Wilhelm Platz 1                 #
                #                 D-45470 Muelheim/Ruhr                 #
                #                      Germany                          #
                #                                                       #
                #                  All rights reserved                  #
                #                        -***-                          #
                #########################################################


                         Program Version 6.0.1  -  RELEASE   -


 With contributions from (in alphabetic order):
[Max-Planck-Institut fuer Kohlenforschung]                               
  Daniel Aravena         : Magnetic Suceptibility                        
  Michael Atanasov       : Ab Initio Ligand Field Theory (pilot matlab implementation)
  Alexander A. Auer      : GIAO ZORA, VPT2 properties, NMR spectrum      
  Ute Becker             : All parallelization in ORCA, NUMFREQ, NUMCALC 
  Giovanni Bistoni       : ED, misc. LED, open-shell LED, HFLD           
  Martin Brehm           : Molecular dynamics                            
  Dmytro Bykov           : pre 5.0 version of the SCF Hessian            
  Marcos Casanova-Páez   : Triplet and SCS-CIS(D). UHF-(DLPNO)-IP/EA/STEOM-CCSD. UHF-CVS-IP/STEOM-CCSD   
  Vijay G. Chilkuri      : MRCI spin determinant printing, contributions to CSF-ICE 
  Pauline Colinet        : FMM embedding                                 
  Dipayan Datta          : RHF DLPNO-CCSD density                        
  Achintya Kumar Dutta   : EOM-CC, STEOM-CC                              
  Nicolas Foglia         : Exact transition moments, OPA infrastructure, MCD improvements    
  Dmitry Ganyushin       : Spin-Orbit,Spin-Spin,Magnetic field MRCI      
  Miquel Garcia-Rates    : C-PCM and meta-GGA Hessian, CCSD/C-PCM, Gaussian charge scheme 
  Tiago L. C. Gouveia    : GS-ROHF, GS-ROCIS                             
  Yang Guo               : DLPNO-NEVPT2, F12-NEVPT2, CIM, IAO-localization        
  Andreas Hansen         : Spin unrestricted coupled pair/coupled cluster methods 
  Ingolf Harden          : AUTO-CI MPn and infrastructure                
  Benjamin Helmich-Paris : MC-RPA, TRAH-(SCF,CASSCF), AVAS, COSX integrals, SCF dyn. polar. 
  Lee Huntington         : MR-EOM, pCC                                   
  Robert Izsak           : Overlap fitted RIJCOSX, COSX-SCS-MP3, EOM     
  Riya Kayal             : Wick's Theorem for AUTO-CI, AUTO-CI UHF-CCSDT 
  Emily Kempfer          : AUTO-CI, RHF CISDT and CCSDT                  
  Christian Kollmar      : KDIIS, OOCD, Brueckner-CCSD(T), CCSD density, CASPT2, CASPT2-K, improved NEVPT2 
  Axel Koslowski         : Symmetry handling                             
  Simone Kossmann        : meta-GGA functionals, TD-DFT gradient, OOMP2, (MP2 Hessian; deprecated post 5.0) 
  Lucas Lang             : DCDCAS                                        
  Marvin Lechner         : AUTO-CI (C++ implementation), FIC-MRCC        
  Spencer Leger          : CASSCF response                               
  Dagmar Lenk            : GEPOL surface, SMD, ORCA-2-JSON               
  Dimitrios Liakos       : Extrapolation schemes; Compound Job, initial MDCI parallelization 
  Dimitrios Manganas     : Further ROCIS development; embedding schemes. LFT, Crystal Embedding 
  Dimitrios Pantazis     : SARC Basis sets                               
  Anastasios Papadopoulos: AUTO-CI, single reference methods and gradients 
  Taras Petrenko         : pre 6.0 DFT Hessian and TD-DFT gradient, (ASA, deprecated), ECA, 1-Electron XAS/XES, NRVS 
  Peter Pinski           : DLPNO-MP2, DLPNO-MP2 Gradient                 
  Christoph Reimann      : Effective Core Potentials                     
  Marius Retegan         : Local ZFS, SOC                                
  Christoph Riplinger    : Optimizer, TS searches, QM/MM, DLPNO-CCSD(T), (RO)-DLPNO pert. Triples 
  Michael Roemelt        : Original ROCIS implementation                 
  Masaaki Saitow         : Open-shell DLPNO-CCSD energy and density      
  Barbara Sandhoefer     : DKH picture change effects                    
  Kantharuban Sivalingam : CASSCF convergence/infrastructure, NEVPT2 and variants, FIC-MRCI 
  Bernardo de Souza      : ESD, SOC TD-DFT                               
  Georgi L. Stoychev     : AutoAux, RI-MP2 NMR, DLPNO-MP2 response, X2C  
  Van Anh Tran           : RI-MP2 g-tensors                              
  Willem Van den Heuvel  : Paramagnetic NMR                              
  Zikuan Wang            : NOTCH, Electric field optimization            
  Frank Wennmohs         : Technical directorship and infrastructure     
  Hang Xu                : AUTO-CI-Response properties                   
                                                                         
[FACCTs GmbH]                                                            
  Markus Bursch, Miquel Garcia-Rates, Christoph Riplinger, Bernardo de Souza, Georgi L. Stoychev 
                                                                 
  APM, Basis sets (HGBS, AHGBS, def-TZVP (Ac-Lr), def2-XVPD (La-Lu)), CI-OPT, improved COSX, DLPNO-Multilevel,           
  DOCKER, DRACO, updates on ESD, GOAT, IRC, LR-CPCM, MBIS, meta-GGA TD-DFT gradient, ML-optimized integration grids, 
  MM, NACMEs, nearIR, NEB, NEB-TS, NL-DFT gradient (VV10), 2- and 3-layer-ONIOM, interface openCOSMO-RS, QMMM,   
  Crystal-QMMM, SF, symmetry and pop. for TD-DFT, r2SCAN hybrids, SOLVATOR                                   
                                                                         
[Other institutions]                                                     
  V. Asgeirsson          : NEB                                           
  Christoph Bannwarth    : sTDA-DFT, sTD-DFT, PBEh-3c, B97-3c, D3        
  Sebastian Ehlert       : rSCAN, r2SCAN, r2SCAN-3c, D4, dhf basis sets  
  Marvin Friede          : D4 for Fr, Ra, Ac-Lr                          
  Lars Goerigk           : TD-DFT with DH, B97 family of functionals     
  Stefan Grimme          : VdW corrections, initial TS optimization, DFT functionals, gCP, sTDA/sTD-DF 
  Waldemar Hujo          : DFT-NL                                        
  H. Jonsson             : NEB                                           
  Holger Kruse           : gCP                                           
  Marcel Mueller         : wB97X-3c, vDZP basis set                      
  Hagen Neugebauer       : wr2SCAN                                       
  Tobias Risthaus        : range-separated hybrid DFT                    
  Lukas Wittmann         : regularized MP2, r2SCAN double-hybrids, wr2SCAN        
                                                                         
We gratefully acknowledge several colleagues who have allowed us to      
interface, adapt or use parts of their codes:                            
  Ed Valeev, F. Pavosevic, A. Kumar             : LibInt (2-el integral package), F12 methods 
  Garnet Chan, S. Sharma, J. Yang, R. Olivares  : DMRG                   
  Ulf Ekstrom                                   : XCFun DFT Library      
  Mihaly Kallay                                 : mrcc  (arbitrary order and MRCC methods)
  Frank Weinhold                                : gennbo (NPA and NBO analysis)           
  Simon Mueller                                 : openCOSMO-RS                            
  Christopher J. Cramer and Donald G. Truhlar   : smd solvation model                     
  S Lehtola, MJT Oliveira, MAL Marques          : LibXC Library                           
  Liviu Ungur et al                             : ANISO software                          


 Your calculation uses the libint2 library for the computation of 2-el integrals
 For citations please refer to: http://libint.valeyev.net

 Your ORCA version has been built with support for libXC version: 6.2.2
 For citations please refer to: https://libxc.gitlab.io

 This ORCA versions uses:
   CBLAS   interface :  Fast vector & matrix operations
   LAPACKE interface :  Fast linear algebra routines
   SCALAPACK package :  Parallel linear algebra routines
   Shared memory     :  Shared parallel matrices
   BLAS/LAPACK       :  OpenBLAS 0.3.27  USE64BITINT DYNAMIC_ARCH NO_AFFINITY SkylakeX SINGLE_THREADED
        Core in use  :  SkylakeX
   Copyright (c) 2011-2014, The OpenBLAS Project


NOTE: MaxCore=5000 MB was set to SCF,MP2,MDCI,CIPSI,MRCI and CIS
      => If you want to overwrite this, your respective input block should be placed after the MaxCore statement
Your calculation utilizes the atom-pairwise dispersion correction
based on EEQ partial charges (D4)


================================================================================

----- Orbital basis set information -----
Your calculation utilizes the basis: def2-TZVP
   F. Weigend and R. Ahlrichs, Phys. Chem. Chem. Phys. 7, 3297 (2005).

----- AuxJ basis set information -----
Your calculation utilizes the auxiliary basis: def2/J
   F. Weigend, Phys. Chem. Chem. Phys. 8, 1057 (2006).

================================================================================
                                        WARNINGS
                       Please study these warnings very carefully!
================================================================================


WARNING: Geometry Optimization
  ===> : Switching off AutoStart
         For restart on a previous wavefunction, please use MOREAD

================================================================================
                                       INPUT FILE
================================================================================
NAME = input.inp
|  1> ! Opt B3LYP D4 def2-TZVP TightSCF TightOpt CPCM(water)  RIJCOSX def2/J 
|  2> 
|  3> %maxcore 5000
|  4> 
|  5> %pal
|  6> nprocs 18
|  7> end
|  8> 
|  9> * xyz 0 1
| 10> Li      -3.4812380000      2.9479260000     -1.7065160000                 
| 11> F       -1.7589500000      5.8662810000     -0.7443140000                 
| 12> P       -2.5029660000      4.5608040000     -0.1723790000                 
| 13> O       -0.9682710000      3.7230480000      0.1776950000                 
| 14> O       -3.7487890000      5.5106850000      0.4144130000                 
| 15> F       -1.9007900000      4.2316310000      1.2826640000                 
| 16> *
| 17> 
| 18> 
| 19>                          ****END OF INPUT****
================================================================================

                       *****************************
                       * Geometry Optimization Run *
                       *****************************

Geometry optimization settings:
Update method            Update   .... BFGS
Choice of coordinates    CoordSys .... (2022) Redundant Internals
Initial Hessian          InHess   .... Almloef's Model
Max. no of cycles        MaxIter  .... 50

Convergence Tolerances:
Energy Change            TolE     ....  1.0000e-06 Eh
Max. Gradient            TolMAXG  ....  1.0000e-04 Eh/bohr
RMS Gradient             TolRMSG  ....  3.0000e-05 Eh/bohr
Max. Displacement        TolMAXD  ....  1.0000e-03 bohr
RMS Displacement         TolRMSD  ....  6.0000e-04 bohr
Strict Convergence                .... False

------------------------------------------------------------------------------
                        ORCA OPTIMIZATION COORDINATE SETUP
------------------------------------------------------------------------------

The optimization will be done in redundant internal coordinates (2022)
Making redundant internal coordinates   ...  (2022 redundants) done
Evaluating the initial hessian          ...  (Almloef) done
Evaluating the coordinates              ...  done
Calculating the B-matrix                .... done
Calculating the G-matrix                .... done
Diagonalizing the G-matrix              .... done
The first mode is                       ....   12
The number of degrees of freedom        ....   12

    -----------------------------------------------------------------
                    Redundant Internal Coordinates


    -----------------------------------------------------------------
         Definition                    Initial Value    Approx d2E/dq
    -----------------------------------------------------------------
      1. B(P   2,F   1)                  1.6078         0.785263   
      2. B(P   2,Li  0)                  2.4315         0.222176   
      3. B(O   3,P   2)                  1.7832         0.443711   
      4. B(O   4,P   2)                  1.6729         0.665247   
      5. B(F   5,O   3)                  1.5327         0.275687   
      6. B(F   5,P   2)                  1.6088         0.782415   
      7. A(O   3,P   2,O   4)          147.0166         0.466460   
      8. A(Li  0,P   2,F   1)          120.0234         0.455345   
      9. A(Li  0,P   2,O   4)          107.3575         0.443471   
     10. A(Li  0,P   2,O   3)           99.1199         0.412424   
     11. A(F   1,P   2,O   3)           93.0402         0.479104   
     12. A(Li  0,P   2,F   5)          125.8410         0.455044   
     13. A(F   1,P   2,F   5)          108.3406         0.530512   
     14. A(O   3,P   2,F   5)           53.4271         0.478784   
     15. A(O   4,P   2,F   5)           94.4554         0.516201   
     16. A(F   1,P   2,O   4)           90.4787         0.516553   
     17. A(P   2,O   3,F   5)           57.4528         0.369599   
     18. A(P   2,F   5,O   3)           69.1201         0.406576   
     19. D(F   5,O   3,P   2,O   4)     15.0902         0.004559   
     20. D(F   5,O   3,P   2,Li  0)   -128.2672         0.004559   
     21. D(F   5,O   3,P   2,F   1)    110.6685         0.004559   
     22. D(O   3,F   5,P   2,O   4)   -171.8273         0.012578   
     23. D(O   3,F   5,P   2,F   1)    -79.8411         0.012578   
     24. D(O   3,F   5,P   2,Li  0)     72.9957         0.012578   
    -----------------------------------------------------------------

Number of atoms                         .... 6
Number of degrees of freedom            .... 24


         *************************************************************
         *                GEOMETRY OPTIMIZATION CYCLE   1            *
         *************************************************************
---------------------------------
CARTESIAN COORDINATES (ANGSTROEM)
---------------------------------
  Li    -3.481238    2.947926   -1.706516
  F     -1.758950    5.866281   -0.744314
  P     -2.502966    4.560804   -0.172379
  O     -0.968271    3.723048    0.177695
  O     -3.748789    5.510685    0.414413
  F     -1.900790    4.231631    1.282664

----------------------------
CARTESIAN COORDINATES (A.U.)
----------------------------
  NO LB      ZA    FRAG     MASS         X           Y           Z
   0 Li    3.0000    0     6.941   -6.578586    5.570773   -3.224848
   1 F     9.0000    0    18.998   -3.323934   11.085665   -1.406550
   2 P    15.0000    0    30.974   -4.729920    8.618671   -0.325749
   3 O     8.0000    0    15.999   -1.829767    7.035541    0.335795
   4 O     8.0000    0    15.999   -7.084185   10.413685    0.783127
   5 F     9.0000    0    18.998   -3.591973    7.996624    2.423884

--------------------------------
INTERNAL COORDINATES (ANGSTROEM)
--------------------------------
 Li     0   0   0     0.000000000000     0.00000000     0.00000000
 F      1   0   0     3.522627506532     0.00000000     0.00000000
 P      2   1   0     1.607774751018    36.69985807     0.00000000
 O      3   2   1     1.783164508405    93.04022126   102.35780955
 O      3   2   1     1.672923702012    90.47869084   249.54900137
 F      4   3   2     1.532711598511    57.45279419   110.66845196

---------------------------
INTERNAL COORDINATES (A.U.)
---------------------------
 Li     0   0   0     0.000000000000     0.00000000     0.00000000
 F      1   0   0     6.656801259163     0.00000000     0.00000000
 P      2   1   0     3.038253964457    36.69985807     0.00000000
 O      3   2   1     3.369692572615    93.04022126   102.35780955
 O      3   2   1     3.161367639749    90.47869084   249.54900137
 F      4   3   2     2.896405163471    57.45279419   110.66845196

---------------------
BASIS SET INFORMATION
---------------------
There are 4 groups of distinct atoms

 Group   1 Type Li  : 11s3p contracted to 5s3p pattern {62111/111}
 Group   2 Type F   : 11s6p2d1f contracted to 5s3p2d1f pattern {62111/411/11/1}
 Group   3 Type P   : 14s9p3d1f contracted to 5s5p2d1f pattern {73211/51111/21/1}
 Group   4 Type O   : 11s6p2d1f contracted to 5s3p2d1f pattern {62111/411/11/1}

Atom   0Li   basis set group =>   1
Atom   1F    basis set group =>   2
Atom   2P    basis set group =>   3
Atom   3O    basis set group =>   4
Atom   4O    basis set group =>   4
Atom   5F    basis set group =>   2
---------------------------------
AUXILIARY/J BASIS SET INFORMATION
---------------------------------
There are 4 groups of distinct atoms

 Group   1 Type Li  : 12s5p4d2f1g contracted to 6s4p3d1f1g pattern {711111/2111/211/2/1}
 Group   2 Type F   : 12s5p4d2f1g contracted to 6s4p3d1f1g pattern {711111/2111/211/2/1}
 Group   3 Type P   : 14s5p5d2f1g contracted to 8s4p3d1f1g pattern {71111111/2111/311/2/1}
 Group   4 Type O   : 12s5p4d2f1g contracted to 6s4p3d1f1g pattern {711111/2111/211/2/1}

Atom   0Li   basis set group =>   1
Atom   1F    basis set group =>   2
Atom   2P    basis set group =>   3
Atom   3O    basis set group =>   4
Atom   4O    basis set group =>   4
Atom   5F    basis set group =>   2
--------------------------------------------------------------------------
WARNING: There was an error initializing an OpenFabrics device.

  Local host:   ga04
  Local device: mlx5_0
--------------------------------------------------------------------------


           ************************************************************
           *        Program running with 18 parallel MPI-processes    *
           *              working on a common directory               *
           ************************************************************
------------------------------------------------------------------------------
                             ORCA STARTUP CALCULATIONS
                           -- RI-GTO INTEGRALS CHOSEN --
------------------------------------------------------------------------------
------------------------------------------------------------------------------
                   ___                                                        
                  /   \      - P O W E R E D   B Y -                         
                 /     \                                                     
                 |  |  |   _    _      __       _____    __    __             
                 |  |  |  | |  | |    /  \     |  _  \  |  |  /  |          
                  \  \/   | |  | |   /    \    | | | |  |  | /  /          
                 / \  \   | |__| |  /  /\  \   | |_| |  |  |/  /          
                |  |  |   |  __  | /  /__\  \  |    /   |      \           
                |  |  |   | |  | | |   __   |  |    \   |  |\   \          
                \     /   | |  | | |  |  |  |  | |\  \  |  | \   \       
                 \___/    |_|  |_| |__|  |__|  |_| \__\ |__|  \__/        
                                                                              
                      - O R C A' S   B I G   F R I E N D -                    
                                      &                                       
                       - I N T E G R A L  F E E D E R -                       
                                                                              
 v1 FN, 2020, v2 2021, v3 2022-2024                                           
------------------------------------------------------------------------------


----------------------
SHARK INTEGRAL PACKAGE
----------------------

Number of atoms                             ...      6
Number of basis functions                   ...    175
Number of shells                            ...     65
Maximum angular momentum                    ...      3
Integral batch strategy                     ... SHARK/LIBINT Hybrid
RI-J (if used) integral strategy            ... SPLIT-RIJ (Revised 2003 algorithm where possible)
Printlevel                                  ...      1
Contraction scheme used                     ... SEGMENTED contraction
Prescreening option                         ... SCHWARTZ
   Thresh                                   ... 2.500e-11
   Tcut                                     ... 2.500e-12
   Tpresel                                  ... 2.500e-12 
Coulomb Range Separation                    ... NOT USED
Exchange Range Separation                   ... NOT USED
Multipole approximations                    ... NOT USED
Finite Nucleus Model                        ... NOT USED
CABS basis                                  ... NOT available
Auxiliary Coulomb fitting basis             ... AVAILABLE
   # of basis functions in Aux-J            ...    296
   # of shells in Aux-J                     ...     92
   Maximum angular momentum in Aux-J        ...      4
Auxiliary J/K fitting basis                 ... NOT available
Auxiliary Correlation fitting basis         ... NOT available
Auxiliary 'external' fitting basis          ... NOT available

Checking pre-screening integrals            ... done (  0.0 sec) Dimension = 65
Check shell pair data                       ... done (  0.0 sec)
Shell pair information
Shell pair cut-off parameter TPreSel        ...   2.5e-12
Total number of shell pairs                 ...      2145
Shell pairs after pre-screening             ...      1958
Total number of primitive shell pairs       ...      7521
Primitive shell pairs kept                  ...      5088
          la=0 lb=0:    390 shell pairs
          la=1 lb=0:    556 shell pairs
          la=1 lb=1:    204 shell pairs
          la=2 lb=0:    268 shell pairs
          la=2 lb=1:    193 shell pairs
          la=2 lb=2:     53 shell pairs
          la=3 lb=0:    133 shell pairs
          la=3 lb=1:     96 shell pairs
          la=3 lb=2:     50 shell pairs
          la=3 lb=3:     15 shell pairs

Calculating one electron integrals          ... done (  0.0 sec)
Calculating RI/J V-Matrix + Cholesky decomp.... done (  0.0 sec)
Calculating Nuclear repulsion               ... done (  0.0 sec) ENN=    287.087564384609 Eh

Diagonalization of the overlap matrix:
Smallest eigenvalue                        ... 2.545e-03
Time for diagonalization                   ...    0.002 sec
Threshold for overlap eigenvalues          ... 1.000e-07
Number of eigenvalues below threshold      ... 0
Time for construction of square roots      ...    0.002 sec
Total time needed                          ...    0.007 sec

-------------------
DFT GRID GENERATION
-------------------

General Integration Accuracy     IntAcc      ... 4.388
Radial Grid Type                 RadialGrid  ... OptM3 with GC (2021)
Angular Grid (max. ang.)         AngularGrid ... 4 (Lebedev-302)
Angular grid pruning method      GridPruning ... 4 (adaptive)
Weight generation scheme         WeightScheme... mBecke (2022)
Basis function cutoff            BFCut       ... 1.0000e-11
Integration weight cutoff        WCut        ... 1.0000e-14
Partially contracted basis set               ... off
Rotationally invariant grid construction     ... off
Angular grids for H and He will be reduced by one unit

Total number of grid points                  ...    37842
Total number of batches                      ...      594
Average number of points per batch           ...       63
Average number of grid points per atom       ...     6307

--------------------
COSX GRID GENERATION
--------------------

GRIDX 1
-------
General Integration Accuracy     IntAcc      ... 3.816
Radial Grid Type                 RadialGrid  ... OptM3 with GC (2021)
Angular Grid (max. ang.)         AngularGrid ... 1 (Lebedev-50)
Angular grid pruning method      GridPruning ... 4 (adaptive)
Weight generation scheme         WeightScheme... mBecke (2022)
Basis function cutoff            BFCut       ... 1.0000e-11
Integration weight cutoff        WCut        ... 1.0000e-14
Partially contracted basis set               ... on
Rotationally invariant grid construction     ... off
Angular grids for H and He will be reduced by one unit

Total number of grid points                  ...     5808
Total number of batches                      ...       48
Average number of points per batch           ...      121
Average number of grid points per atom       ...      968
UseSFitting                                  ... on

GRIDX 2
-------
General Integration Accuracy     IntAcc      ... 4.020
Radial Grid Type                 RadialGrid  ... OptM3 with GC (2021)
Angular Grid (max. ang.)         AngularGrid ... 2 (Lebedev-110)
Angular grid pruning method      GridPruning ... 4 (adaptive)
Weight generation scheme         WeightScheme... mBecke (2022)
Basis function cutoff            BFCut       ... 1.0000e-11
Integration weight cutoff        WCut        ... 1.0000e-14
Partially contracted basis set               ... on
Rotationally invariant grid construction     ... off
Angular grids for H and He will be reduced by one unit

Total number of grid points                  ...    11263
Total number of batches                      ...       91
Average number of points per batch           ...      123
Average number of grid points per atom       ...     1877
UseSFitting                                  ... on

GRIDX 3
-------
General Integration Accuracy     IntAcc      ... 4.338
Radial Grid Type                 RadialGrid  ... OptM3 with GC (2021)
Angular Grid (max. ang.)         AngularGrid ... 3 (Lebedev-194)
Angular grid pruning method      GridPruning ... 4 (adaptive)
Weight generation scheme         WeightScheme... mBecke (2022)
Basis function cutoff            BFCut       ... 1.0000e-11
Integration weight cutoff        WCut        ... 1.0000e-14
Partially contracted basis set               ... on
Rotationally invariant grid construction     ... off
Angular grids for H and He will be reduced by one unit

Total number of grid points                  ...    25706
Total number of batches                      ...      204
Average number of points per batch           ...      126
Average number of grid points per atom       ...     4284
UseSFitting                                  ... on
Initializing property integral containers    ... done (  0.0 sec)

SHARK setup successfully completed in   0.5 seconds

Maximum memory used throughout the entire STARTUP-calculation: 15.3 MB
[ga04:892037] 17 more processes have sent help message help-mpi-btl-openib.txt / error in device init
[ga04:892037] Set MCA parameter "orte_base_help_aggregate" to 0 to see all help / error messages
--------------------------------------------------------------------------
WARNING: There was an error initializing an OpenFabrics device.

  Local host:   ga04
  Local device: mlx5_0
--------------------------------------------------------------------------


           ************************************************************
           *        Program running with 18 parallel MPI-processes    *
           *              working on a common directory               *
           ************************************************************
-------------------------------------------------------------------------------
                                 ORCA GUESS
                   Start orbitals & Density for SCF / CASSCF
-------------------------------------------------------------------------------

------------
SCF SETTINGS
------------
Hamiltonian:
 Density Functional     Method          .... DFT(GTOs)
 Exchange Functional    Exchange        .... B88
   X-Alpha parameter    XAlpha          ....  0.666667
   Becke's b parameter  XBeta           ....  0.004200
 Correlation Functional Correlation     .... LYP
 LDA part of GGA corr.  LDAOpt          .... VWN-5
 Gradients option       PostSCFGGA      .... off
 Hybrid DFT is turned on
   Fraction HF Exchange ScalHFX         ....  0.200000
   Scaling of DF-GGA-X  ScalDFX         ....  0.720000
   Scaling of DF-GGA-C  ScalDFC         ....  0.810000
   Scaling of DF-LDA-C  ScalLDAC        ....  1.000000
   Perturbative correction              ....  0.000000
   NL short-range parameter             ....  4.800000
 RI-approximation to the Coulomb term is turned on
   Number of AuxJ basis functions       .... 296
   RIJ-COSX (HFX calculated with COS-X)).... on


General Settings:
 Integral files         IntName         .... input
 Hartree-Fock type      HFTyp           .... RHF
 Total Charge           Charge          ....    0
 Multiplicity           Mult            ....    1
 Number of Electrons    NEL             ....   52
 Basis Dimension        Dim             ....  175
 Nuclear Repulsion      ENuc            ....    287.0875643846 Eh

Convergence Acceleration:
 AO-DIIS                CNVDIIS         .... on
   Start iteration      DIISMaxIt       ....    12
   Startup error        DIISStart       ....  0.200000
   # of expansion vecs  DIISMaxEq       ....     5
   Bias factor          DIISBfac        ....   1.050
   Max. coefficient     DIISMaxC        ....  10.000
 MO-DIIS                CNVKDIIS        .... off
 Trust-Rad. Augm. Hess. CNVTRAH         .... auto
   Auto Start mean grad. ratio tolernc. ....  1.125000
   Auto Start start iteration           ....    50
   Auto Start num. interpolation iter.  ....    10
   Max. Number of Micro iterations      ....    24
   Max. Number of Macro iterations      .... Maxiter - #DIIS iter
   Number of Davidson start vectors     ....     2
   Converg. threshold    (grad. norm)   ....   1.000e-05
   Grad. Scal. Fac. for Micro threshold ....   0.100
   Minimum threshold for Micro iter.    ....   1.000e-02
   NR start threshold (gradient norm)   ....   1.000e-04
   Initial trust radius                 ....   0.400
   Minimum AH scaling param. (alpha)    ....   1.000
   Maximum AH scaling param. (alpha)    .... 1000.000
   Quad. conv. algorithm                .... NR
   White noise on init. David. guess    .... on
   Maximum white noise                  ....   0.010
   Pseudo random numbers                .... off
   Inactive MOs                         .... canonical
   Orbital update algorithm             .... Taylor
   Preconditioner                       .... Diag
   Full preconditioner red. dimension   ....   250
 SOSCF                  CNVSOSCF        .... on
   Start iteration      SOSCFMaxIt      ....   150
   Startup grad/error   SOSCFStart      ....  0.003300
   Hessian update       SOSCFHessUp     .... L-BFGS
 Level Shifting         CNVShift        .... on
   Level shift para.    LevelShift      ....    0.2500
   Turn off err/grad.   ShiftErr        ....    0.0010
 Zerner damping         CNVZerner       .... off
 Static damping         CNVDamp         .... on
   Fraction old density DampFac         ....    0.7000
   Max. Damping (<1)    DampMax         ....    0.9800
   Min. Damping (>=0)   DampMin         ....    0.0000
   Turn off err/grad.   DampErr         ....    0.1000

SCF Procedure:
 Maximum # iterations   MaxIter         ....   125
 SCF integral mode      SCFMode         .... Direct
   Integral package                     .... SHARK and LIBINT hybrid scheme
 Reset frequency        DirectResetFreq ....    20
 Integral Threshold     Thresh          ....  2.500e-11 Eh
 Primitive CutOff       TCut            ....  2.500e-12 Eh

Convergence Tolerance:
 Convergence Check Mode ConvCheckMode   .... Total+1el-Energy
 Convergence forced     ConvForced      .... 0
 Energy Change          TolE            ....  1.000e-08 Eh
 1-El. energy change                    ....  1.000e-05 Eh
 Orbital Gradient       TolG            ....  1.000e-05
 Orbital Rotation angle TolX            ....  1.000e-05
 DIIS Error             TolErr          ....  5.000e-07

------------------------------
INITIAL GUESS: MODEL POTENTIAL
------------------------------
Loading Hartree-Fock densities                     ... done
Calculating cut-offs                               ... done
Initializing the effective Hamiltonian             ... done
Setting up the integral package (SHARK)            ... done
Starting the Coulomb interaction                   ... done (   0.0 sec)
Making the grid                                    ... done (   0.0 sec)
Mapping shells                                     ... done
Starting the XC term evaluation                    ... done (   0.0 sec)
  promolecular density results
     # of electrons  =     52.000057973
     EX              =    -60.872880242
     EC              =     -1.972315639
     EX+EC           =    -62.845195881
Transforming the Hamiltonian                       ... done (   0.0 sec)
Diagonalizing the Hamiltonian                      ... done (   0.0 sec)
Back transforming the eigenvectors                 ... done (   0.0 sec)
Now organizing SCF variables                       ... done
                      ------------------
                      INITIAL GUESS DONE (   0.1 sec)
                      ------------------
             **** ENERGY FILE WAS UPDATED (input.en.tmp) ****
Finished Guess after   0.6 sec
Maximum memory used throughout the entire GUESS-calculation: 9.8 MB
[ga04:892290] 17 more processes have sent help message help-mpi-btl-openib.txt / error in device init
[ga04:892290] Set MCA parameter "orte_base_help_aggregate" to 0 to see all help / error messages
--------------------------------------------------------------------------
WARNING: There was an error initializing an OpenFabrics device.

  Local host:   ga04
  Local device: mlx5_0
--------------------------------------------------------------------------


           ************************************************************
           *        Program running with 18 parallel MPI-processes    *
           *              working on a common directory               *
           ************************************************************

-------------------------------------------------------------------------------------------
                                      ORCA LEAN-SCF
                              memory conserving SCF solver
-------------------------------------------------------------------------------------------

--------------------
CPCM SOLVATION MODEL
--------------------
CPCM parameters:
  Epsilon                                         ...      80.1510
  Refrac                                          ...       1.3328
  Rsolv                                           ...       1.3000
  Surface type                                    ... GAUSSIAN VDW
  Discretization scheme                           ... Constant charge density
    Threshold for H atoms                         ...       5.0000 (charges/Ang^2)
    Threshold for non-H atoms                     ...       5.0000 (charges/Ang^2)
  Epsilon function type                           ...         CPCM
Solvent:                                          ... WATER
Radii:
  Scheme                                          ... Element-dependent radii
  Radius for Li used is    4.1272 Bohr (=   2.1840 Ang.)
  Radius for F  used is    3.3335 Bohr (=   1.7640 Ang.)
  Radius for P  used is    4.0818 Bohr (=   2.1600 Ang.)
  Radius for O  used is    3.4469 Bohr (=   1.8240 Ang.)
Calculating surface                               ...        done! (  0.0s)
Cavity surface points                             ...          835
Cavity Volume                                     ...     793.6136
Cavity Surface-area                               ...     485.8646
Calculating surface distance matrix               ...        done! (  0.0s)
Performing Cholesky decomposition & store         ...        done! (  0.0s)
Overall time for CPCM initialization              ...                 0.0s

----------------------------------------D-I-I-S--------------------------------------------
Iteration    Energy (Eh)           Delta-E    RMSDP     MaxDP     DIISErr   Damp  Time(sec)
-------------------------------------------------------------------------------------------
               ***  Starting incremental Fock matrix formation  ***
    1    -698.5972941838020915     0.00e+00  3.41e-03  9.16e-02  4.66e-01  0.700   0.2
Warning: op=0 Small HOMO/LUMO gap (   0.022) - skipping pre-diagonalization
         Will do a full diagonalization
    2    -698.7591038172864728    -1.62e-01  1.72e-03  6.68e-02  1.15e-01  0.700   0.2
                               ***Turning on AO-DIIS***
    3    -698.7956322471708290    -3.65e-02  6.59e-04  3.25e-02  4.41e-02  0.700   0.2
    4    -698.8242024810353996    -2.86e-02  1.02e-03  3.94e-02  3.08e-02  0.000   0.2
    5    -698.8968150841550369    -7.26e-02  4.44e-04  2.31e-02  8.72e-03  0.000   0.2
    6    -698.8976365059833142    -8.21e-04  2.03e-04  5.43e-03  4.91e-03  0.000   0.2
    7    -698.8978920480236638    -2.56e-04  1.27e-04  2.33e-03  5.07e-03  0.000   0.2
                              *** Initializing SOSCF ***
---------------------------------------S-O-S-C-F--------------------------------------
Iteration    Energy (Eh)           Delta-E    RMSDP     MaxDP     MaxGrad    Time(sec)
--------------------------------------------------------------------------------------
    8    -698.8980312331310643    -1.39e-04  1.04e-04  1.83e-03  2.06e-03     0.2
               *** Restarting incremental Fock matrix formation ***
    9    -698.8980942735896633    -6.30e-05  2.05e-04  4.62e-03  2.07e-03     0.2
   10    -698.8981059714880075    -1.17e-05  1.31e-04  2.69e-03  1.46e-03     0.2
   11    -698.8981785654759733    -7.26e-05  4.70e-05  9.15e-04  4.46e-04     0.2
   12    -698.8981761904101404     2.38e-06  2.41e-05  5.31e-04  5.10e-04     0.2
   13    -698.8981855957904372    -9.41e-06  1.66e-05  4.56e-04  8.91e-05     0.2
   14    -698.8981858953324036    -3.00e-07  2.10e-05  6.09e-04  7.49e-05     0.2
   15    -698.8981862850993139    -3.90e-07  2.61e-05  7.23e-04  5.13e-05     0.2
   16    -698.8981863578779894    -7.28e-08  3.47e-06  8.99e-05  9.37e-05     0.2
   17    -698.8981864589155748    -1.01e-07  3.55e-06  9.65e-05  2.56e-05     0.2
   18    -698.8981864786252345    -1.97e-08  1.43e-06  3.36e-05  8.62e-06     0.2
   19    -698.8981864813509901    -2.73e-09  7.11e-07  1.36e-05  2.92e-06     0.2
                 **** Energy Check signals convergence ****

               *****************************************************
               *                     SUCCESS                       *
               *           SCF CONVERGED AFTER  19 CYCLES          *
               *****************************************************

Recomputing exchange energy using gridx3       ... done (    0.218 sec)
Old exchange energy                            :    -12.199607142 Eh
New exchange energy                            :    -12.199574222 Eh
Exchange energy change after final integration :      0.000032920 Eh
Total energy after final integration           :   -698.898153561 Eh
             **** ENERGY FILE WAS UPDATED (input.en.tmp) ****

----------------
TOTAL SCF ENERGY
----------------

Total Energy       :       -698.89815356117981 Eh          -19017.98561 eV

Components:
Nuclear Repulsion  :        287.08756438460898 Eh            7812.04978 eV
Electronic Energy  :       -985.92475175824711 Eh          -26828.37642 eV
One Electron Energy:      -1541.52558685534586 Eh          -41947.04376 eV
Two Electron Energy:        555.60083509709875 Eh           15118.66734 eV
CPCM Dielectric    :         -0.06099910771288 Eh              -1.65987 eV

Virial components:
Potential Energy   :      -1396.05883046810413 Eh          -37988.69208 eV
Kinetic Energy     :        697.16067690692444 Eh           18970.70647 eV
Virial Ratio       :          2.00249221838209

DFT components:
N(Alpha)           :       25.999994963738 electrons
N(Beta)            :       25.999994963738 electrons
N(Total)           :       51.999989927477 electrons
E(X)               :      -48.616476327109 Eh       
E(C)               :       -2.324873563495 Eh       
E(XC)              :      -50.941349890604 Eh       

CPCM Solvation Model Properties:
Surface-charge          :         -0.01034076983234
Corrected charge        :         -0.00000000000000
Outlying charge corr.   :          0.00000875818355 Eh               0.00024 eV
Free-energy (cav+disp)  :  This term is not implemented in the current solvation scheme

---------------
SCF CONVERGENCE
---------------

  Last Energy change         ...    2.7258e-09  Tolerance :   1.0000e-08
  Last MAX-Density change    ...    1.3592e-05  Tolerance :   1.0000e-07
  Last RMS-Density change    ...    7.1149e-07  Tolerance :   5.0000e-09
  Last DIIS Error            ...    2.0611e-03  Tolerance :   5.0000e-07
  Last Orbital Gradient      ...    2.9173e-06  Tolerance :   1.0000e-05
  Last Orbital Rotation      ...    4.8357e-05  Tolerance :   1.0000e-05


----------------
ORBITAL ENERGIES
----------------

  NO   OCC          E(Eh)            E(eV) 
   0   2.0000     -77.169756     -2099.8958 
   1   2.0000     -24.818748      -675.3525 
   2   2.0000     -24.670765      -671.3256 
   3   2.0000     -19.231850      -523.3253 
   4   2.0000     -19.045703      -518.2599 
   5   2.0000      -6.635701      -180.5666 
   6   2.0000      -4.800090      -130.6171 
   7   2.0000      -4.796336      -130.5150 
   8   2.0000      -4.792828      -130.4195 
   9   2.0000      -2.046925       -55.6997 
  10   2.0000      -1.358997       -36.9802 
  11   2.0000      -1.196519       -32.5589 
  12   2.0000      -0.981138       -26.6981 
  13   2.0000      -0.878366       -23.9015 
  14   2.0000      -0.676631       -18.4121 
  15   2.0000      -0.579052       -15.7568 
  16   2.0000      -0.577620       -15.7179 
  17   2.0000      -0.546473       -14.8703 
  18   2.0000      -0.460040       -12.5183 
  19   2.0000      -0.444448       -12.0941 
  20   2.0000      -0.413030       -11.2391 
  21   2.0000      -0.378355       -10.2956 
  22   2.0000      -0.353463        -9.6182 
  23   2.0000      -0.276105        -7.5132 
  24   2.0000      -0.249635        -6.7929 
  25   2.0000      -0.223080        -6.0703 
  26   0.0000      -0.157643        -4.2897 
  27   0.0000      -0.014180        -0.3859 
  28   0.0000      -0.007742        -0.2107 
  29   0.0000       0.027187         0.7398 
  30   0.0000       0.076512         2.0820 
  31   0.0000       0.093232         2.5370 
  32   0.0000       0.097101         2.6423 
  33   0.0000       0.141032         3.8377 
  34   0.0000       0.152166         4.1407 
  35   0.0000       0.240796         6.5524 
  36   0.0000       0.256661         6.9841 
*Only the first 10 virtual orbitals were printed.

                    ********************************
                    * MULLIKEN POPULATION ANALYSIS *
                    ********************************

-----------------------
MULLIKEN ATOMIC CHARGES
-----------------------
   0 Li:    0.804413
   1 F :   -0.293588
   2 P :    0.419079
   3 O :   -0.169237
   4 O :   -0.813466
   5 F :    0.052799
Sum of atomic charges:    0.0000000

--------------------------------
MULLIKEN REDUCED ORBITAL CHARGES
--------------------------------
  0 Lis       :     2.099393  s :     2.099393
      pz      :     0.033954  p :     0.096194
      px      :     0.024988
      py      :     0.037252

  1 F s       :     3.892725  s :     3.892725
      pz      :     1.843500  p :     5.389316
      px      :     1.854969
      py      :     1.690847
      dz2     :     0.001432  d :     0.011166
      dxz     :     0.001163
      dyz     :     0.002866
      dx2y2   :     0.002732
      dxy     :     0.002973
      f0      :     0.000037  f :     0.000382
      f+1     :     0.000015
      f-1     :     0.000050
      f+2     :     0.000051
      f-2     :     0.000071
      f+3     :     0.000093
      f-3     :     0.000064

  2 P s       :     5.728165  s :     5.728165
      pz      :     2.683140  p :     8.068039
      px      :     2.622753
      py      :     2.762146
      dz2     :     0.119526  d :     0.656236
      dxz     :     0.109938
      dyz     :     0.120918
      dx2y2   :     0.137225
      dxy     :     0.168629
      f0      :     0.017595  f :     0.128481
      f+1     :     0.021901
      f-1     :     0.018181
      f+2     :     0.012677
      f-2     :     0.014878
      f+3     :     0.023440
      f-3     :     0.019809

  3 O s       :     3.930567  s :     3.930567
      pz      :     0.970472  p :     4.207174
      px      :     1.445078
      py      :     1.791624
      dz2     :     0.004231  d :     0.029902
      dxz     :     0.010485
      dyz     :     0.004556
      dx2y2   :     0.004737
      dxy     :     0.005893
      f0      :     0.000093  f :     0.001594
      f+1     :     0.000334
      f-1     :     0.000119
      f+2     :     0.000253
      f-2     :     0.000349
      f+3     :     0.000183
      f-3     :     0.000263

  4 O s       :     3.855552  s :     3.855552
      pz      :     1.692137  p :     4.941596
      px      :     1.594242
      py      :     1.655217
      dz2     :     0.002096  d :     0.015634
      dxz     :     0.002914
      dyz     :     0.001858
      dx2y2   :     0.003654
      dxy     :     0.005113
      f0      :     0.000057  f :     0.000683
      f+1     :     0.000074
      f-1     :     0.000040
      f+2     :     0.000049
      f-2     :     0.000143
      f+3     :     0.000135
      f-3     :     0.000185

  5 F s       :     3.894966  s :     3.894966
      pz      :     1.568827  p :     5.028651
      px      :     1.629255
      py      :     1.830569
      dz2     :     0.006754  d :     0.022923
      dxz     :     0.006945
      dyz     :     0.004939
      dx2y2   :     0.002180
      dxy     :     0.002104
      f0      :     0.000141  f :     0.000661
      f+1     :     0.000169
      f-1     :     0.000108
      f+2     :     0.000085
      f-2     :     0.000096
      f+3     :     0.000027
      f-3     :     0.000036



                     *******************************
                     * LOEWDIN POPULATION ANALYSIS *
                     *******************************

----------------------
LOEWDIN ATOMIC CHARGES
----------------------
   0 Li:    0.606210
   1 F :   -0.103889
   2 P :   -0.028783
   3 O :   -0.089692
   4 O :   -0.608376
   5 F :    0.224530

-------------------------------
LOEWDIN REDUCED ORBITAL CHARGES
-------------------------------
  0 Lis       :     2.177169  s :     2.177169
      pz      :     0.080149  p :     0.216622
      px      :     0.049289
      py      :     0.087184

  1 F s       :     3.708810  s :     3.708810
      pz      :     1.806415  p :     5.374224
      px      :     1.836855
      py      :     1.730955
      dz2     :     0.002681  d :     0.020199
      dxz     :     0.002157
      dyz     :     0.003967
      dx2y2   :     0.004544
      dxy     :     0.006848
      f0      :     0.000068  f :     0.000657
      f+1     :     0.000027
      f-1     :     0.000079
      f+2     :     0.000070
      f-2     :     0.000124
      f+3     :     0.000202
      f-3     :     0.000087

  2 P s       :     5.024601  s :     5.024601
      pz      :     2.737423  p :     8.263118
      px      :     2.696910
      py      :     2.828786
      dz2     :     0.247851  d :     1.311165
      dxz     :     0.218632
      dyz     :     0.230113
      dx2y2   :     0.246321
      dxy     :     0.368248
      f0      :     0.062992  f :     0.429898
      f+1     :     0.074760
      f-1     :     0.056364
      f+2     :     0.039631
      f-2     :     0.055801
      f+3     :     0.075110
      f-3     :     0.065240

  3 O s       :     3.714103  s :     3.714103
      pz      :     1.003452  p :     4.293068
      px      :     1.517478
      py      :     1.772137
      dz2     :     0.012580  d :     0.077387
      dxz     :     0.027451
      dyz     :     0.010643
      dx2y2   :     0.012505
      dxy     :     0.014206
      f0      :     0.000409  f :     0.005134
      f+1     :     0.001351
      f-1     :     0.000477
      f+2     :     0.000804
      f-2     :     0.001075
      f+3     :     0.000361
      f-3     :     0.000657

  4 O s       :     3.658186  s :     3.658186
      pz      :     1.647999  p :     4.918362
      px      :     1.616467
      py      :     1.653896
      dz2     :     0.003047  d :     0.030396
      dxz     :     0.005706
      dyz     :     0.004780
      dx2y2   :     0.004537
      dxy     :     0.012327
      f0      :     0.000167  f :     0.001431
      f+1     :     0.000112
      f-1     :     0.000062
      f+2     :     0.000095
      f-2     :     0.000380
      f+3     :     0.000247
      f-3     :     0.000369

  5 F s       :     3.677385  s :     3.677385
      pz      :     1.641629  p :     5.050732
      px      :     1.613896
      py      :     1.795207
      dz2     :     0.013987  d :     0.045598
      dxz     :     0.013945
      dyz     :     0.007794
      dx2y2   :     0.004757
      dxy     :     0.005115
      f0      :     0.000358  f :     0.001755
      f+1     :     0.000483
      f-1     :     0.000196
      f+2     :     0.000267
      f-2     :     0.000312
      f+3     :     0.000072
      f-3     :     0.000068



                      *****************************
                      * MAYER POPULATION ANALYSIS *
                      *****************************

  NA   - Mulliken gross atomic population
  ZA   - Total nuclear charge
  QA   - Mulliken gross atomic charge
  VA   - Mayer's total valence
  BVA  - Mayer's bonded valence
  FA   - Mayer's free valence

  ATOM       NA         ZA         QA         VA         BVA        FA
  0 Li     2.1956     3.0000     0.8044     0.3597     0.3597     0.0000
  1 F      9.2936     9.0000    -0.2936     0.9334     0.9334     0.0000
  2 P     14.5809    15.0000     0.4191     3.9875     3.9875     0.0000
  3 O      8.1692     8.0000    -0.1692     1.3367     1.3367     0.0000
  4 O      8.8135     8.0000    -0.8135     1.6517     1.6517    -0.0000
  5 F      8.9472     9.0000     0.0528     1.3103     1.3103     0.0000

  Mayer bond orders larger than 0.100000
B(  0-Li,  2-P ) :   0.2943 B(  1-F ,  2-P ) :   0.9610 B(  2-P ,  3-O ) :   0.5655 
B(  2-P ,  4-O ) :   1.5317 B(  2-P ,  5-F ) :   0.6351 B(  3-O ,  4-O ) :   0.1026 
B(  3-O ,  5-F ) :   0.6595 

-------
TIMINGS
-------

Total SCF time: 0 days 0 hours 0 min 4 sec 

Total time                  ....       4.574 sec
Sum of individual times     ....       4.501 sec  ( 98.4%)

SCF preparation             ....       0.529 sec  ( 11.6%)
Fock matrix formation       ....       3.505 sec  ( 76.6%)
  Startup                   ....       0.054 sec  (  1.5% of F)
  Split-RI-J                ....       0.285 sec  (  8.1% of F)
  Chain of spheres X        ....       2.097 sec  ( 59.8% of F)
  XC integration            ....       0.601 sec  ( 17.2% of F)
    XC Preparation          ....       0.000 sec  (  0.0% of XC)
    Basis function eval.    ....       0.097 sec  ( 16.1% of XC)
    Density eval.           ....       0.070 sec  ( 11.7% of XC)
    XC-Functional eval.     ....       0.023 sec  (  3.9% of XC)
    XC-Potential eval.      ....       0.110 sec  ( 18.3% of XC)
  CPCM terms                ....       0.363 sec  ( 10.4% of F)
Diagonalization             ....       0.000 sec  (  0.0%)
Density matrix formation    ....       0.082 sec  (  1.8%)
Total Energy calculation    ....       0.071 sec  (  1.5%)
Population analysis         ....       0.021 sec  (  0.5%)
Orbital Transformation      ....       0.026 sec  (  0.6%)
Orbital Orthonormalization  ....       0.000 sec  (  0.0%)
DIIS solution               ....       0.159 sec  (  3.5%)
SOSCF solution              ....       0.108 sec  (  2.4%)
Finished LeanSCF after   4.6 sec

Maximum memory used throughout the entire LEANSCF-calculation: 13.8 MB
[ga04:892369] 17 more processes have sent help message help-mpi-btl-openib.txt / error in device init
[ga04:892369] Set MCA parameter "orte_base_help_aggregate" to 0 to see all help / error messages


-------------------------------------------------------------------------------
                          DFT DISPERSION CORRECTION                            
                                                                               
                                DFTD4 V3.4.0                                   
-------------------------------------------------------------------------------
The B3LYP functional is recognized
Active option DFTDOPT                   ...         5   

-------------------------   ----------------
Dispersion correction           -0.007891175
-------------------------   ----------------


-------------------------   --------------------
FINAL SINGLE POINT ENERGY      -698.906044736626
-------------------------   --------------------

--------------------------------------------------------------------------
WARNING: There was an error initializing an OpenFabrics device.

  Local host:   ga04
  Local device: mlx5_0
--------------------------------------------------------------------------


           ************************************************************
           *        Program running with 18 parallel MPI-processes    *
           *              working on a common directory               *
           ************************************************************
------------------------------------------------------------------------------
                         ORCA SCF GRADIENT CALCULATION
------------------------------------------------------------------------------

Nuc. rep. gradient        (SHARK) ... done (  0.0 sec)
HCore & Overlap gradient  (SHARK) ... done (  0.0 sec)
Split-RIJ-J gradient      (SHARK) ... done (  0.1 sec)
COSX-gradient                     ... done (  0.8 sec)
XC gradient                       ... done (  0.1 sec)
CPCM gradient                     ... done (  0.1 sec)
Dispersion correction             ... done (  0.0 sec)

-------------------
DISPERSION GRADIENT
-------------------

   1   Li  :   -0.000087405   -0.000125217   -0.000133616
   2   F   :    0.000066073    0.000173382   -0.000085677
   3   P   :   -0.000042013   -0.000076348   -0.000075444
   4   O   :    0.000223082   -0.000116582    0.000112353
   5   O   :   -0.000264406    0.000219166    0.000096147
   6   F   :    0.000104669   -0.000074400    0.000086236

Difference to translation invariance:
           :   -0.0000000000    0.0000000000   -0.0000000000

Difference to rotation invariance:
           :    0.0000000000   -0.0000000000    0.0000000000

Norm of the Dispersion gradient    ...    0.0005686138
RMS gradient                       ...    0.0001340236
MAX gradient                       ...    0.0002644060

------------------
CARTESIAN GRADIENT
------------------

   1   Li  :    0.000406442   -0.000543370   -0.000750706
   2   F   :   -0.027447043    0.003729704    0.007144905
   3   P   :    0.146774815   -0.083459968    0.063193240
   4   O   :   -0.046652199    0.013620505   -0.003689698
   5   O   :   -0.051449464    0.055980952    0.012926393
   6   F   :   -0.021632551    0.010672178   -0.078824134

Difference to translation invariance:
           :    0.0000000001   -0.0000000001    0.0000000000

Difference to rotation invariance:
           :    0.0000158549    0.0004884588    0.0000905126

Norm of the Cartesian gradient     ...    0.2200904249
RMS gradient                       ...    0.0518758106
MAX gradient                       ...    0.1467748150

-------
TIMINGS
-------

Total SCF gradient time     ....        1.184 sec

Densities                   ....       0.001 sec  (  0.1%)
One electron gradient       ....       0.008 sec  (  0.7%)
RI-J Coulomb gradient       ....       0.113 sec  (  9.5%)
COSX gradient               ....       0.808 sec  ( 68.3%)
XC gradient                 ....       0.094 sec  (  7.9%)
CPCM gradient               ....       0.133 sec  ( 11.2%)
   A-Matrix (El+Nuc)        ....       0.018 sec  (  1.5%)
   Potential                ....       0.115 sec  (  9.7%)

Maximum memory used throughout the entire SCFGRAD-calculation: 28.6 MB
[ga04:892457] 17 more processes have sent help message help-mpi-btl-openib.txt / error in device init
[ga04:892457] Set MCA parameter "orte_base_help_aggregate" to 0 to see all help / error messages
------------------------------------------------------------------------------
                         ORCA GEOMETRY RELAXATION STEP
------------------------------------------------------------------------------

Reading the OPT-File                    .... done
Getting information on internals        .... done
Copying old internal coords+grads       .... done
Making the new internal coordinates     .... (2022 redundants) done
Validating the new internal coordinates .... (2022 redundants) done
Calculating the B-matrix                .... done
Calculating the G,G- and P matrices     .... done
Transforming gradient to internals      .... done
Projecting the internal gradient        .... done
Number of atoms                         ....   6
Number of internal coordinates          ....  24
Current Energy                          ....  -698.906044737 Eh
Current gradient norm                   ....     0.220090425 Eh/bohr
Maximum allowed component of the step   ....  0.300
Current trust radius                    ....  0.300
Evaluating the initial hessian          ....  (Almloef) done
Projecting the Hessian                  .... done
Forming the augmented Hessian           .... done
Diagonalizing the augmented Hessian     .... done
Last element of RFO vector              ....  0.975583746
Lowest eigenvalues of augmented Hessian:
 -0.026615737  0.043700907  0.178738099  0.222177469  0.256939550
Length of the computed step             ....  0.225124461
The final length of the internal step   ....  0.225124461
Converting the step to Cartesian space:
 Initial RMS(Int)=    0.0459533381
Transforming coordinates:
 Iter   0:  RMS(Cart)=    0.0451042929 RMS(Int)=    0.0458610667
 Iter   5:  RMS(Cart)=    0.0000000053 RMS(Int)=    0.0000000049
done
Storing new coordinates                 .... done

                                .--------------------.
          ----------------------|Geometry convergence|-------------------------
          Item                value                   Tolerance       Converged
          ---------------------------------------------------------------------
          RMS gradient        0.0255871010            0.0000300000      NO
          MAX gradient        0.0746322248            0.0001000000      NO
          RMS step            0.0459533381            0.0006000000      NO
          MAX step            0.1078714877            0.0010000000      NO
          ........................................................
          Max(Bonds)      0.0571      Max(Angles)    4.99
          Max(Dihed)        3.98      Max(Improp)    0.00
          ---------------------------------------------------------------------

The optimization has not yet converged - more geometry cycles are needed


    ---------------------------------------------------------------------------
                         Redundant Internal Coordinates
                            (Angstroem and degrees)

        Definition                    Value    dE/dq     Step     New-Value
    ----------------------------------------------------------------------------
     1. B(P   2,F   1)                1.6078 -0.012212  0.0080    1.6157   
     2. B(P   2,Li  0)                2.4315  0.000671 -0.0014    2.4300   
     3. B(O   3,P   2)                1.7832 -0.042665  0.0462    1.8294   
     4. B(O   4,P   2)                1.6729  0.074632 -0.0571    1.6158   
     5. B(F   5,O   3)                1.5327 -0.017981  0.0225    1.5552   
     6. B(F   5,P   2)                1.6088 -0.069553  0.0498    1.6586   
     7. A(O   3,P   2,O   4)          147.02  0.017904   -1.80    145.21   
     8. A(Li  0,P   2,F   1)          120.02 -0.001654   -0.22    119.81   
     9. A(Li  0,P   2,O   4)          107.36 -0.003548   -0.09    107.27   
    10. A(Li  0,P   2,O   3)           99.12 -0.006369    0.52     99.64   
    11. A(F   1,P   2,O   3)           93.04  0.022158   -3.21     89.83   
    12. A(Li  0,P   2,F   5)          125.84  0.000322   -0.50    125.34   
    13. A(F   1,P   2,F   5)          108.34  0.012385   -0.81    107.53   
    14. A(O   3,P   2,F   5)           53.43  0.010478   -0.77     52.66   
    15. A(O   4,P   2,F   5)           94.46  0.008492   -1.26     93.20   
    16. A(F   1,P   2,O   4)           90.48 -0.029085    4.99     95.47   
    17. A(P   2,O   3,F   5)           57.45 -0.013939    0.57     58.02   
    18. A(P   2,F   5,O   3)           69.12  0.003462    0.20     69.32   
    19. D(F   5,O   3,P   2,O   4)     15.09  0.011889   -2.24     12.85   
    20. D(F   5,O   3,P   2,Li  0)   -128.27 -0.001641    0.78   -127.48   
    21. D(F   5,O   3,P   2,F   1)    110.67 -0.003797    1.63    112.30   
    22. D(O   3,F   5,P   2,O   4)   -171.83  0.002466   -0.81   -172.64   
    23. D(O   3,F   5,P   2,F   1)    -79.84 -0.024339    3.98    -75.87   
    24. D(O   3,F   5,P   2,Li  0)     73.00 -0.000130    0.57     73.56   
    ----------------------------------------------------------------------------

Geometry step timings:
Preparation and reading OPT file:      0.000 s (11.111 %)
Internal coordinates            :      0.000 s ( 1.340 %)
B/P matrices and projection     :      0.000 s (10.638 %)
Hessian update/contruction      :      0.000 s (34.279 %)
Making the step                 :      0.000 s ( 7.171 %)
Converting the step to Cartesian:      0.000 s ( 2.994 %)
Storing new data                :      0.000 s (11.584 %)
Checking convergence            :      0.000 s ( 0.079 %)
Final printing                  :      0.000 s (20.567 %)
Total time                      :      0.001 s
--------------------------------------------------------------------------
WARNING: There was an error initializing an OpenFabrics device.

  Local host:   ga04
  Local device: mlx5_0
--------------------------------------------------------------------------
[ga04:892533] 17 more processes have sent help message help-mpi-btl-openib.txt / error in device init
[ga04:892533] Set MCA parameter "orte_base_help_aggregate" to 0 to see all help / error messages

Time for energy+gradient        :      8.825 s
Time for complete geometry iter :      9.670 s

         *************************************************************
         *                GEOMETRY OPTIMIZATION CYCLE   2            *
         *************************************************************
---------------------------------
CARTESIAN COORDINATES (ANGSTROEM)
---------------------------------
  Li    -3.503441    2.964347   -1.713853
  F     -1.716449    5.851152   -0.771481
  P     -2.532765    4.585651   -0.186048
  O     -0.951511    3.744866    0.187543
  O     -3.749511    5.455796    0.424949
  F     -1.907327    4.238564    1.310454

----------------------------
CARTESIAN COORDINATES (A.U.)
----------------------------
  NO LB      ZA    FRAG     MASS         X           Y           Z
   0 Li    3.0000    0     6.941   -6.620544    5.601803   -3.238714
   1 F     9.0000    0    18.998   -3.243619   11.057075   -1.457888
   2 P    15.0000    0    30.974   -4.786233    8.665624   -0.351579
   3 O     8.0000    0    15.999   -1.798095    7.076771    0.354404
   4 O     8.0000    0    15.999   -7.085549   10.309961    0.803037
   5 F     9.0000    0    18.998   -3.604325    8.009725    2.476399

--------------------------------
INTERNAL COORDINATES (ANGSTROEM)
--------------------------------
 Li     0   0   0     0.000000000000     0.00000000     0.00000000
 F      1   0   0     3.523499614886     0.00000000     0.00000000
 P      2   1   0     1.615734574849    36.77119394     0.00000000
 O      3   2   1     1.829440847402    89.84344374   101.00272742
 O      3   2   1     1.615840569228    95.48997039   246.55611889
 F      4   3   2     1.555072633280    58.01428418   112.31627990

---------------------------
INTERNAL COORDINATES (A.U.)
---------------------------
 Li     0   0   0     0.000000000000     0.00000000     0.00000000
 F      1   0   0     6.658449305112     0.00000000     0.00000000
 P      2   1   0     3.053295851573    36.77119394     0.00000000
 O      3   2   1     3.457142179798    89.84344374   101.00272742
 O      3   2   1     3.053496151920    95.48997039   246.55611889
 F      4   3   2     2.938661395255    58.01428418   112.31627990

--------------------------------------------------------------------------
WARNING: There was an error initializing an OpenFabrics device.

  Local host:   ga04
  Local device: mlx5_0
--------------------------------------------------------------------------


           ************************************************************
           *        Program running with 18 parallel MPI-processes    *
           *              working on a common directory               *
           ************************************************************
------------------------------------------------------------------------------
                   ___                                                        
                  /   \      - P O W E R E D   B Y -                         
                 /     \                                                     
                 |  |  |   _    _      __       _____    __    __             
                 |  |  |  | |  | |    /  \     |  _  \  |  |  /  |          
                  \  \/   | |  | |   /    \    | | | |  |  | /  /          
                 / \  \   | |__| |  /  /\  \   | |_| |  |  |/  /          
                |  |  |   |  __  | /  /__\  \  |    /   |      \           
                |  |  |   | |  | | |   __   |  |    \   |  |\   \          
                \     /   | |  | | |  |  |  |  | |\  \  |  | \   \       
                 \___/    |_|  |_| |__|  |__|  |_| \__\ |__|  \__/        
                                                                              
                      - O R C A' S   B I G   F R I E N D -                    
                                      &                                       
                       - I N T E G R A L  F E E D E R -                       
                                                                              
 v1 FN, 2020, v2 2021, v3 2022-2024                                           
------------------------------------------------------------------------------


----------------------
SHARK INTEGRAL PACKAGE
----------------------

Number of atoms                             ...      6
Number of basis functions                   ...    175
Number of shells                            ...     65
Maximum angular momentum                    ...      3
Integral batch strategy                     ... SHARK/LIBINT Hybrid
RI-J (if used) integral strategy            ... SPLIT-RIJ (Revised 2003 algorithm where possible)
Printlevel                                  ...      1
Contraction scheme used                     ... SEGMENTED contraction
Prescreening option                         ... SCHWARTZ
   Thresh                                   ... 2.500e-11
   Tcut                                     ... 2.500e-12
   Tpresel                                  ... 2.500e-12 
Coulomb Range Separation                    ... NOT USED
Exchange Range Separation                   ... NOT USED
Multipole approximations                    ... NOT USED
Finite Nucleus Model                        ... NOT USED
CABS basis                                  ... NOT available
Auxiliary Coulomb fitting basis             ... AVAILABLE
   # of basis functions in Aux-J            ...    296
   # of shells in Aux-J                     ...     92
   Maximum angular momentum in Aux-J        ...      4
Auxiliary J/K fitting basis                 ... NOT available
Auxiliary Correlation fitting basis         ... NOT available
Auxiliary 'external' fitting basis          ... NOT available

Checking pre-screening integrals            ... done (  0.0 sec) Dimension = 65
Check shell pair data                       ... done (  0.0 sec)
Shell pair information
Shell pair cut-off parameter TPreSel        ...   2.5e-12
Total number of shell pairs                 ...      2145
Shell pairs after pre-screening             ...      1957
Total number of primitive shell pairs       ...      7521
Primitive shell pairs kept                  ...      5082
          la=0 lb=0:    390 shell pairs
          la=1 lb=0:    554 shell pairs
          la=1 lb=1:    205 shell pairs
          la=2 lb=0:    268 shell pairs
          la=2 lb=1:    193 shell pairs
          la=2 lb=2:     53 shell pairs
          la=3 lb=0:    133 shell pairs
          la=3 lb=1:     96 shell pairs
          la=3 lb=2:     50 shell pairs
          la=3 lb=3:     15 shell pairs

Calculating one electron integrals          ... done (  0.0 sec)
Calculating RI/J V-Matrix + Cholesky decomp.... done (  0.0 sec)
Calculating Nuclear repulsion               ... done (  0.0 sec) ENN=    285.408087404395 Eh

Diagonalization of the overlap matrix:
Smallest eigenvalue                        ... 2.481e-03
Time for diagonalization                   ...    0.003 sec
Threshold for overlap eigenvalues          ... 1.000e-07
Number of eigenvalues below threshold      ... 0
Time for construction of square roots      ...    0.002 sec
Total time needed                          ...    0.007 sec

-------------------
DFT GRID GENERATION
-------------------

General Integration Accuracy     IntAcc      ... 4.388
Radial Grid Type                 RadialGrid  ... OptM3 with GC (2021)
Angular Grid (max. ang.)         AngularGrid ... 4 (Lebedev-302)
Angular grid pruning method      GridPruning ... 4 (adaptive)
Weight generation scheme         WeightScheme... mBecke (2022)
Basis function cutoff            BFCut       ... 1.0000e-11
Integration weight cutoff        WCut        ... 1.0000e-14
Partially contracted basis set               ... off
Rotationally invariant grid construction     ... off
Angular grids for H and He will be reduced by one unit

Total number of grid points                  ...    37837
Total number of batches                      ...      596
Average number of points per batch           ...       63
Average number of grid points per atom       ...     6306

--------------------
COSX GRID GENERATION
--------------------

GRIDX 1
-------
General Integration Accuracy     IntAcc      ... 3.816
Radial Grid Type                 RadialGrid  ... OptM3 with GC (2021)
Angular Grid (max. ang.)         AngularGrid ... 1 (Lebedev-50)
Angular grid pruning method      GridPruning ... 4 (adaptive)
Weight generation scheme         WeightScheme... mBecke (2022)
Basis function cutoff            BFCut       ... 1.0000e-11
Integration weight cutoff        WCut        ... 1.0000e-14
Partially contracted basis set               ... on
Rotationally invariant grid construction     ... off
Angular grids for H and He will be reduced by one unit

Total number of grid points                  ...     5812
Total number of batches                      ...       49
Average number of points per batch           ...      118
Average number of grid points per atom       ...      969
UseSFitting                                  ... on

GRIDX 2
-------
General Integration Accuracy     IntAcc      ... 4.020
Radial Grid Type                 RadialGrid  ... OptM3 with GC (2021)
Angular Grid (max. ang.)         AngularGrid ... 2 (Lebedev-110)
Angular grid pruning method      GridPruning ... 4 (adaptive)
Weight generation scheme         WeightScheme... mBecke (2022)
Basis function cutoff            BFCut       ... 1.0000e-11
Integration weight cutoff        WCut        ... 1.0000e-14
Partially contracted basis set               ... on
Rotationally invariant grid construction     ... off
Angular grids for H and He will be reduced by one unit

Total number of grid points                  ...    11264
Total number of batches                      ...       91
Average number of points per batch           ...      123
Average number of grid points per atom       ...     1877
UseSFitting                                  ... on

GRIDX 3
-------
General Integration Accuracy     IntAcc      ... 4.338
Radial Grid Type                 RadialGrid  ... OptM3 with GC (2021)
Angular Grid (max. ang.)         AngularGrid ... 3 (Lebedev-194)
Angular grid pruning method      GridPruning ... 4 (adaptive)
Weight generation scheme         WeightScheme... mBecke (2022)
Basis function cutoff            BFCut       ... 1.0000e-11
Integration weight cutoff        WCut        ... 1.0000e-14
Partially contracted basis set               ... on
Rotationally invariant grid construction     ... off
Angular grids for H and He will be reduced by one unit

Total number of grid points                  ...    25710
Total number of batches                      ...      204
Average number of points per batch           ...      126
Average number of grid points per atom       ...     4285
UseSFitting                                  ... on
Initializing property integral containers    ... done (  0.0 sec)

SHARK setup successfully completed in   0.5 seconds

Maximum memory used throughout the entire STARTUP-calculation: 15.5 MB
[ga04:892609] 17 more processes have sent help message help-mpi-btl-openib.txt / error in device init
[ga04:892609] Set MCA parameter "orte_base_help_aggregate" to 0 to see all help / error messages
--------------------------------------------------------------------------
WARNING: There was an error initializing an OpenFabrics device.

  Local host:   ga04
  Local device: mlx5_0
--------------------------------------------------------------------------


           ************************************************************
           *        Program running with 18 parallel MPI-processes    *
           *              working on a common directory               *
           ************************************************************
Occupation numbers will be reassigned to an Aufbau configuration
             **** ENERGY FILE WAS UPDATED (input.en.tmp) ****
Finished Guess after   0.5 sec
Maximum memory used throughout the entire GUESS-calculation: 10.1 MB
[ga04:892687] 17 more processes have sent help message help-mpi-btl-openib.txt / error in device init
[ga04:892687] Set MCA parameter "orte_base_help_aggregate" to 0 to see all help / error messages
--------------------------------------------------------------------------
WARNING: There was an error initializing an OpenFabrics device.

  Local host:   ga04
  Local device: mlx5_0
--------------------------------------------------------------------------


           ************************************************************
           *        Program running with 18 parallel MPI-processes    *
           *              working on a common directory               *
           ************************************************************
--------------------
CPCM SOLVATION MODEL
--------------------
CPCM parameters:
  Epsilon                                         ...      80.1510
  Refrac                                          ...       1.3328
  Rsolv                                           ...       1.3000
  Surface type                                    ... GAUSSIAN VDW
  Discretization scheme                           ... Constant charge density
    Threshold for H atoms                         ...       5.0000 (charges/Ang^2)
    Threshold for non-H atoms                     ...       5.0000 (charges/Ang^2)
  Epsilon function type                           ...         CPCM
Solvent:                                          ... WATER
Radii:
  Scheme                                          ... Element-dependent radii
  Radius for Li used is    4.1272 Bohr (=   2.1840 Ang.)
  Radius for F  used is    3.3335 Bohr (=   1.7640 Ang.)
  Radius for P  used is    4.0818 Bohr (=   2.1600 Ang.)
  Radius for O  used is    3.4469 Bohr (=   1.8240 Ang.)
Calculating surface                               ...        done! (  0.0s)
Cavity surface points                             ...          835
Cavity Volume                                     ...     795.4472
Cavity Surface-area                               ...     487.1942
[...]
    5    -699.2683585736861005    -1.24e-07  8.63e-07  4.90e-05  8.17e-06     0.2
    6    -699.2683585664489101     7.24e-09  5.37e-07  2.61e-05  1.33e-05     0.2
                 **** Energy Check signals convergence ****

               *****************************************************
               *                     SUCCESS                       *
               *           SCF CONVERGED AFTER   6 CYCLES          *
               *****************************************************

Recomputing exchange energy using gridx3       ... done (    0.220 sec)
Old exchange energy                            :    -12.271128105 Eh
New exchange energy                            :    -12.271174052 Eh
Exchange energy change after final integration :     -0.000045947 Eh
Total energy after final integration           :   -699.268404513 Eh
             **** ENERGY FILE WAS UPDATED (input.en.tmp) ****

----------------
TOTAL SCF ENERGY
----------------

Total Energy       :       -699.26840451307226 Eh          -19028.06065 eV

Components:
Nuclear Repulsion  :        294.26968155674012 Eh            8007.48513 eV
Electronic Energy  :       -993.49689208035977 Eh          -27034.42484 eV
One Electron Energy:      -1556.69869895850093 Eh          -42359.92514 eV
Two Electron Energy:        563.20180687814116 Eh           15325.50030 eV
CPCM Dielectric    :         -0.04114804282921 Eh              -1.11970 eV

Virial components:
Potential Energy   :      -1396.56871037977589 Eh          -38002.56662 eV
Kinetic Energy     :        697.30030586670364 Eh           18974.50597 eV
Virial Ratio       :          2.00282245487319

DFT components:
N(Alpha)           :       26.000012577789 electrons
N(Beta)            :       26.000012577789 electrons
N(Total)           :       52.000025155579 electrons
E(X)               :      -48.822916402043 Eh       
E(C)               :       -2.338431741117 Eh       
E(XC)              :      -51.161348143160 Eh       

CPCM Solvation Model Properties:
Surface-charge          :         -0.00860839794222
Corrected charge        :          0.00000000000000
Outlying charge corr.   :          0.00000605374701 Eh               0.00016 eV
Free-energy (cav+disp)  :  This term is not implemented in the current solvation scheme

---------------
SCF CONVERGENCE
---------------

  Last Energy change         ...   -7.2372e-09  Tolerance :   1.0000e-08
  Last MAX-Density change    ...    2.6143e-05  Tolerance :   1.0000e-07
  Last RMS-Density change    ...    5.3670e-07  Tolerance :   5.0000e-09
  Last DIIS Error            ...    1.0833e-03  Tolerance :   5.0000e-07
  Last Orbital Gradient      ...    1.3317e-05  Tolerance :   1.0000e-05
  Last Orbital Rotation      ...    9.5204e-06  Tolerance :   1.0000e-05


Total SCF time: 0 days 0 hours 0 min 2 sec 
Finished LeanSCF after   2.3 sec

Maximum memory used throughout the entire LEANSCF-calculation: 20.1 MB
[ga04:912161] 17 more processes have sent help message help-mpi-btl-openib.txt / error in device init
[ga04:912161] Set MCA parameter "orte_base_help_aggregate" to 0 to see all help / error messages


-------------------------------------------------------------------------------
                          DFT DISPERSION CORRECTION                            
                                                                               
                                DFTD4 V3.4.0                                   
-------------------------------------------------------------------------------
-------------------------   ----------------
Dispersion correction           -0.007998039
-------------------------   ----------------


-------------------------   --------------------
FINAL SINGLE POINT ENERGY      -699.276402552120
-------------------------   --------------------

--------------------------------------------------------------------------
WARNING: There was an error initializing an OpenFabrics device.

  Local host:   ga04
  Local device: mlx5_0
--------------------------------------------------------------------------


           ************************************************************
           *        Program running with 18 parallel MPI-processes    *
           *              working on a common directory               *
           ************************************************************
------------------------------------------------------------------------------
                         ORCA SCF GRADIENT CALCULATION
------------------------------------------------------------------------------

Nuc. rep. gradient        (SHARK) ... done (  0.0 sec)
HCore & Overlap gradient  (SHARK) ... done (  0.0 sec)
Split-RIJ-J gradient      (SHARK) ... done (  0.1 sec)
COSX-gradient                     ... done (  0.8 sec)
XC gradient                       ... done (  0.1 sec)
CPCM gradient                     ... done (  0.1 sec)
Dispersion correction             ... done (  0.0 sec)

-------------------
DISPERSION GRADIENT
-------------------

   1   Li  :   -0.000067208   -0.000187962   -0.000157811
   2   F   :    0.000115199    0.000150260   -0.000074495
   3   P   :    0.000032660    0.000006897   -0.000006119
   4   O   :    0.000029209   -0.000145554   -0.000058142
   5   O   :   -0.000231389    0.000186259    0.000138820
   6   F   :    0.000121528   -0.000009902    0.000157747

Difference to translation invariance:
           :    0.0000000000   -0.0000000000   -0.0000000000

Difference to rotation invariance:
           :   -0.0000000000    0.0000000000   -0.0000000000

Norm of the Dispersion gradient    ...    0.0005291277
RMS gradient                       ...    0.0001247166
MAX gradient                       ...    0.0002313888

------------------
CARTESIAN GRADIENT
------------------

   1   Li  :    0.000051616   -0.000048713   -0.000088280
   2   F   :   -0.000003457   -0.000012588   -0.000017517
   3   P   :   -0.000101438    0.000097476    0.000017526
   4   O   :    0.000052588    0.000003567    0.000119527
   5   O   :    0.000090863   -0.000080515   -0.000001158
   6   F   :   -0.000090173    0.000040773   -0.000030099

Difference to translation invariance:
           :    0.0000000000   -0.0000000001    0.0000000000

Difference to rotation invariance:
           :   -0.0000961669   -0.0003796646    0.0004980077

Norm of the Cartesian gradient     ...    0.0002755195
RMS gradient                       ...    0.0000649406
MAX gradient                       ...    0.0001195272

-------
TIMINGS
-------

Total SCF gradient time     ....        1.171 sec

Densities                   ....       0.001 sec  (  0.1%)
One electron gradient       ....       0.008 sec  (  0.7%)
RI-J Coulomb gradient       ....       0.109 sec  (  9.3%)
COSX gradient               ....       0.808 sec  ( 69.0%)
XC gradient                 ....       0.081 sec  (  6.9%)
CPCM gradient               ....       0.136 sec  ( 11.6%)
   A-Matrix (El+Nuc)        ....       0.021 sec  (  1.8%)
   Potential                ....       0.115 sec  (  9.9%)

Maximum memory used throughout the entire SCFGRAD-calculation: 28.6 MB
[ga04:912238] 17 more processes have sent help message help-mpi-btl-openib.txt / error in device init
[ga04:912238] Set MCA parameter "orte_base_help_aggregate" to 0 to see all help / error messages
------------------------------------------------------------------------------
                         ORCA GEOMETRY RELAXATION STEP
------------------------------------------------------------------------------

Reading the OPT-File                    .... done
Getting information on internals        .... done
Copying old internal coords+grads       .... done
Making the new internal coordinates     .... (2022 redundants) done
Validating the new internal coordinates .... (2022 redundants) done
Calculating the B-matrix                .... done
Calculating the G,G- and P matrices     .... done
Transforming gradient to internals      .... done
Projecting the internal gradient        .... done
Number of atoms                         ....   6
Number of internal coordinates          ....  24
Current Energy                          ....  -699.276402552 Eh
Current gradient norm                   ....     0.000275520 Eh/bohr
Maximum allowed component of the step   ....  0.300
Current trust radius                    ....  0.700
Updating the Hessian (BFGS)             .... done
Forming the augmented Hessian           .... done
Diagonalizing the augmented Hessian     .... done
Last element of RFO vector              ....  0.999996575
Lowest eigenvalues of augmented Hessian:
 -0.000000178  0.008944759  0.010417204  0.026873361  0.053196718
Length of the computed step             ....  0.002617215
The final length of the internal step   ....  0.002617215
Converting the step to Cartesian space:
 Initial RMS(Int)=    0.0005342368
Transforming coordinates:
 Iter   0:  RMS(Cart)=    0.0012178417 RMS(Int)=    0.0005298054
done
Storing new coordinates                 .... done
The predicted energy change is          ....    -0.000000089
Previously predicted energy change      ....    -0.000000948
Actually observed energy change         ....    -0.000001169
Ratio of predicted to observed change   ....     1.232634494
New trust radius                        ....     0.700000000

                                .--------------------.
          ----------------------|Geometry convergence|-------------------------
          Item                value                   Tolerance       Converged
          ---------------------------------------------------------------------
          Energy change      -0.0000011691            0.0000010000      NO
          RMS gradient        0.0000454583            0.0000300000      NO
          MAX gradient        0.0001210098            0.0001000000      NO
          RMS step            0.0005342368            0.0006000000      YES
          MAX step            0.0015337868            0.0010000000      NO
          ........................................................
          Max(Bonds)      0.0004      Max(Angles)    0.09
          Max(Dihed)        0.03      Max(Improp)    0.00
          ---------------------------------------------------------------------

The optimization has not yet converged - more geometry cycles are needed


    ---------------------------------------------------------------------------
                         Redundant Internal Coordinates
                            (Angstroem and degrees)

        Definition                    Value    dE/dq     Step     New-Value
    ----------------------------------------------------------------------------
     1. B(P   2,F   1)                1.5746  0.000004 -0.0000    1.5745   
     2. B(P   2,Li  0)                3.1758  0.000078  0.0004    3.1761   
     3. B(O   3,P   2)                1.4929 -0.000033  0.0000    1.4930   
     4. B(O   4,P   2)                1.4687 -0.000121  0.0001    1.4688   
     5. B(F   5,O   3)                2.4583 -0.000049  0.0001    2.4584   
     6. B(F   5,P   2)                1.5739 -0.000040  0.0000    1.5739   
     7. A(O   3,P   2,O   4)          122.37  0.000049   -0.02    122.34   
     8. A(Li  0,P   2,F   1)          107.27 -0.000033   -0.00    107.27   
     9. A(Li  0,P   2,O   4)          113.80  0.000013    0.06    113.86   
    10. A(Li  0,P   2,O   3)           10.14  0.000053   -0.09     10.05   
    11. A(F   1,P   2,O   3)          106.75 -0.000028    0.01    106.75   
    12. A(Li  0,P   2,F   5)          116.14  0.000058   -0.08    116.06   
    13. A(F   1,P   2,F   5)           97.58  0.000006   -0.00     97.57   
    14. A(O   3,P   2,F   5)          106.53  0.000005    0.00    106.54   
    15. A(O   4,P   2,F   5)          110.32 -0.000075    0.01    110.34   
    16. A(F   1,P   2,O   4)          110.39  0.000033   -0.00    110.39   
    17. A(P   2,O   3,F   5)           37.86 -0.000003    0.01     37.87   
    18. A(P   2,F   5,O   3)           35.60 -0.000002   -0.01     35.59   
    19. D(F   5,O   3,P   2,O   4)   -128.10  0.000062   -0.02   -128.12   
    20. D(F   5,O   3,P   2,Li  0)   -162.01 -0.000042   -0.03   -162.03   
    21. D(F   5,O   3,P   2,F   1)    103.47 -0.000002   -0.01    103.46   
    22. D(O   3,F   5,P   2,O   4)    134.86  0.000011   -0.00    134.86   
    23. D(O   3,F   5,P   2,F   1)   -110.04  0.000027   -0.01   -110.05   
    24. D(O   3,F   5,P   2,Li  0)      3.47  0.000012   -0.03      3.44   
    ----------------------------------------------------------------------------

Geometry step timings:
Preparation and reading OPT file:      0.000 s (11.365 %)
Internal coordinates            :      0.000 s ( 0.776 %)
B/P matrices and projection     :      0.000 s ( 5.796 %)
Hessian update/contruction      :      0.001 s (39.023 %)
Making the step                 :      0.000 s ( 5.066 %)
Converting the step to Cartesian:      0.000 s ( 1.095 %)
Storing new data                :      0.000 s (14.788 %)
Checking convergence            :      0.000 s ( 0.365 %)
Final printing                  :      0.000 s (21.634 %)
Total time                      :      0.002 s
--------------------------------------------------------------------------
WARNING: There was an error initializing an OpenFabrics device.

  Local host:   ga04
  Local device: mlx5_0
--------------------------------------------------------------------------
[ga04:912314] 17 more processes have sent help message help-mpi-btl-openib.txt / error in device init
[ga04:912314] Set MCA parameter "orte_base_help_aggregate" to 0 to see all help / error messages

Time for energy+gradient        :      6.254 s
Time for complete geometry iter :      6.895 s




    ----------------------------------------------------------------------------
                                  WARNING !!!
       The optimization did not converge but reached the maximum number of
       optimization cycles.
       Please check your results very carefully.
    ----------------------------------------------------------------------------



--------------------------------
SUGGESTED CITATIONS FOR THIS RUN
--------------------------------

Below you find a list of papers that are relevant to this ORCA run
We neither can nor want to force you to cite these papers, but we appreciate if you do
You receive ORCA, which is the product of decades of hard work by many enthusiastic individuals, for free
The only thing we kindly ask in return is that you cite our papers,
We deeply appreciate it, if you show your appreciation for ORCA by not just citing the generic ORCA reference.

Please note that relegating all ORCA citations to the supporting information does *not* help us.
SI sections are not indexed - citations you put there will not count into any citation statistics
But we need these citations in order to attract the funding resources that allow us to do what we are doing

Therefore, if you are a happy ORCA user, please consider citing a few of the papers listed below in the main body of your paper

In addition to the list printed below, the program has created the file input.bibtex that contains the list in bibtex format
You can import this file easily into all common literature databanks and citation aid programs


List of essential papers. We consider these as the minimum necessary citations

  1. Neese,F.
     Software update: the ORCA program system, version 5.0
     WIRES Comput. Molec. Sci., 2022 12(1)e1606
     doi.org/10.1002/wcms.1606

List of papers to cite with high priority. The work reported in these papers was absolutely
necessary for this run to complete.
Our perspective: the developers of density functionals and basis sets usually get cited in chemistry papers
Good! But without the algorithms to do something with them, the functionals or basis sets would not do anything.
Hence, in our opinion, the algorithm design and method developments papers are equally worthy of getting cited

  1. Neese,F.
     An improvement of the resolution of the identity approximation for the formation of the Coulomb matrix
     J. Comp. Chem., 2003 24(14)1740-1747
     doi.org/10.1002/jcc.10318
  2. Neese,F.; Wennmohs,F.; Hansen,A.; Becker,U.
     Efficient, approximate and parallel Hartree-Fock and hybrid DFT calculations. A 'chain-of-spheres' algorithm for the Hartree-Fock exchange
     Chem. Phys., 2009 356(1-3)98-109
     doi.org/10.1016/j.chemphys.2008.10.036
  3. Garcia-Rates,M.; Neese,F.
     Effect of the Solute Cavity on the Solvation Energy and its Derivatives within the Framework of the Gaussian Charge Scheme
     J. Comput. Chem., 2020 41 922-939
     doi.org/10.1002/jcc.26139
  4. Helmich-Paris,B.; de Souza,B.; Neese,F.; Izsák,R.
     An improved chain of spheres for exchange algorithm
     J. Chem. Phys., 2021 155 104109
     doi.org/doi: 10.1063/5.0058766.
  5. Neese,F.
     The SHARK Integral Generation and Digestion System
     J. Comp. Chem., 2022  1-16
     doi.org/10.1002/jcc.26942
  6. Caldeweyher,E.; Bannwarth,C.; Grimme,S.
     Extension of the D3 dispersion coefficient model
     J. Chem. Phys., 2017 147 034112
     doi.org/10.1063/1.4993215
  7. Caldeweyher,E.; Ehlert,S.; Hansen,A.; Neugebauer,H.; Spicher,S.; Bannwarth,C.; Grimme,S.
     A generally applicable atomic-charge dependent London dispersion correction
     J. Chem. Phys., 2019 150 154122
     doi.org/10.1063/1.5090222
  8. Caldeweyher,E.; Mewes,J.; Ehlert,S.; Grimme,S.
     Extension and evaluation of the D4 London-dispersion model for periodic systems
     Phys. Chem. Chem. Phys., 2020 22(16)8499-8512
     doi.org/10.1039/D0CP00502A
  9. Wittmann,L.; Gordiy,I.; Friede,M.; Helmich-Paris,B.; Grimme,S.; Hansen,A.; Bursch,M.
     Extension of the D3 and D4 London Dispersion Corrections to the full Actinides Series
     Phys. Chem. Chem. Phys., 2024 26(32)21379-21394
     doi.org/https://doi.org/10.1039/D4CP01514B 

List of suggested additional citations. These are papers that are important in the 'surrounding' of 
of this run, or papers that preceded the highly important papers. If you like your results we are grateful for a citation.

  1. Izsak,R.; Neese,F.
     An overlap fitted chain of spheres exchange method
     J. Chem. Phys., 2011 135 144105
     doi.org/10.1063/1.3646921
  2. Izsak,R.; Hansen,A.; Neese,F.
     The resolution of identity and chain of spheres approximations for the LPNO-CCSD singles Fock term
     Molec. Phys., 2012 110 2413-2417
     doi.org/10.1080/00268976.2012.687466
  3. Neese,F.
     The ORCA program system
     WIRES Comput. Molec. Sci., 2012 2(1)73-78
     doi.org/10.1002/wcms.81
  4. Izsak,R.; Neese,F.; Klopper,W.
     Robust fitting techniques in the chain of spheres approximation to the Fock exchange: The role of the complementary space
     J. Chem. Phys., 2013 139 
     doi.org/10.1063/1.4819264
  5. Neese,F.
     Software update: the ORCA program system, version 4.0
     WIRES Comput. Molec. Sci., 2018 8(1)1-6
     doi.org/10.1002/wcms.1327
  6. Neese,F.; Wennmohs,F.; Becker,U.; Riplinger,C.
     The ORCA quantum chemistry program package
     J. Chem. Phys., 2020 152 Art. No. L224108
     doi.org/10.1063/5.0004608

List of optional additional citations

  1. Neese,F.
     Approximate second-order SCF convergence for spin unrestricted wavefunctions
     Chem. Phys. Lett., 2000 325(1-3)93-98
     doi.org/10.1016/s0009-2614(00)00662-x

Timings for individual modules:

Sum of individual times          ...      354.832 sec (=   5.914 min)
Startup calculation              ...       55.352 sec (=   0.923 min)  15.6 %
SCF iterations                   ...      204.522 sec (=   3.409 min)  57.6 %
SCF Gradient evaluation          ...       94.841 sec (=   1.581 min)  26.7 %
Geometry relaxation              ...        0.117 sec (=   0.002 min)   0.0 %
                             ****ORCA TERMINATED NORMALLY****
TOTAL RUN TIME: 0 days 0 hours 6 minutes 31 seconds 506 msec
