
                                 *****************
                                 * O   R   C   A *
                                 *****************

                                            #,                                       
                                            ###                                      
                                            ####                                     
                                            #####                                    
                                            ######                                   
                                           ########,                                 
                                     ,,################,,,,,                         
                               ,,#################################,,                 
                          ,,##########################################,,             
                       ,#########################################, ''#####,          
                    ,#############################################,,   '####,        
                  ,##################################################,,,,####,       
                ,###########''''           ''''###############################       
              ,#####''   ,,,,##########,,,,          '''####'''          '####       
            ,##' ,,,,###########################,,,                        '##       
           ' ,,###''''                  '''############,,,                           
         ,,##''                                '''############,,,,        ,,,,,,###''
      ,#''                                            '''#######################'''  
     '                                                          ''''####''''         
             ,#######,   #######,   ,#######,      ##                                
            ,#'     '#,  ##    ##  ,#'     '#,    #''#        ,####,   ,####,        
            ##       ##  ##   ,#'  ##            #'  '#       #'       #'  '#        
            ##       ##  #######   ##           ,######,      #####,   #    #        
            '#,     ,#'  ##    ##  '#,     ,#' ,#      #,     #,   #   #,  ,#        
             '#######'   ##     ##  '#######'  #'      '#     '####' # '####'        



                #########################################################
                #                        -***-                          #
                #          Department of theory and spectroscopy        #
                #                                                       #
                #                      Frank Neese                      #
                #                                                       #
                #     Directorship, Architecture, Infrastructure        #
                #                    SHARK, DRIVERS                     #
                #        Core code/Algorithms in most modules           #
                #                                                       #
                #        Max Planck Institute fuer Kohlenforschung      #
                #                Kaiser Wilhelm Platz 1                 #
                #                 D-45470 Muelheim/Ruhr                 #
                #                      Germany                          #
                #                                                       #
                #                  All rights reserved                  #
                #                        -***-                          #
                #########################################################


                         Program Version 6.0.1  -  RELEASE   -


 With contributions from (in alphabetic order):
[Max-Planck-Institut fuer Kohlenforschung]                               
  Daniel Aravena         : Magnetic Suceptibility                        
  Michael Atanasov       : Ab Initio Ligand Field Theory (pilot matlab implementation)
  Alexander A. Auer      : GIAO ZORA, VPT2 properties, NMR spectrum      
  Ute Becker             : All parallelization in ORCA, NUMFREQ, NUMCALC 
  Giovanni Bistoni       : ED, misc. LED, open-shell LED, HFLD           
  Martin Brehm           : Molecular dynamics                            
  Dmytro Bykov           : pre 5.0 version of the SCF Hessian            
  Marcos Casanova-Páez   : Triplet and SCS-CIS(D). UHF-(DLPNO)-IP/EA/STEOM-CCSD. UHF-CVS-IP/STEOM-CCSD   
  Vijay G. Chilkuri      : MRCI spin determinant printing, contributions to CSF-ICE 
  Pauline Colinet        : FMM embedding                                 
  Dipayan Datta          : RHF DLPNO-CCSD density                        
  Achintya Kumar Dutta   : EOM-CC, STEOM-CC                              
  Nicolas Foglia         : Exact transition moments, OPA infrastructure, MCD improvements    
  Dmitry Ganyushin       : Spin-Orbit,Spin-Spin,Magnetic field MRCI      
  Miquel Garcia-Rates    : C-PCM and meta-GGA Hessian, CCSD/C-PCM, Gaussian charge scheme 
  Tiago L. C. Gouveia    : GS-ROHF, GS-ROCIS                             
  Yang Guo               : DLPNO-NEVPT2, F12-NEVPT2, CIM, IAO-localization        
  Andreas Hansen         : Spin unrestricted coupled pair/coupled cluster methods 
  Ingolf Harden          : AUTO-CI MPn and infrastructure                
  Benjamin Helmich-Paris : MC-RPA, TRAH-(SCF,CASSCF), AVAS, COSX integrals, SCF dyn. polar. 
  Lee Huntington         : MR-EOM, pCC                                   
  Robert Izsak           : Overlap fitted RIJCOSX, COSX-SCS-MP3, EOM     
  Riya Kayal             : Wick's Theorem for AUTO-CI, AUTO-CI UHF-CCSDT 
  Emily Kempfer          : AUTO-CI, RHF CISDT and CCSDT                  
  Christian Kollmar      : KDIIS, OOCD, Brueckner-CCSD(T), CCSD density, CASPT2, CASPT2-K, improved NEVPT2 
  Axel Koslowski         : Symmetry handling                             
  Simone Kossmann        : meta-GGA functionals, TD-DFT gradient, OOMP2, (MP2 Hessian; deprecated post 5.0) 
  Lucas Lang             : DCDCAS                                        
  Marvin Lechner         : AUTO-CI (C++ implementation), FIC-MRCC        
  Spencer Leger          : CASSCF response                               
  Dagmar Lenk            : GEPOL surface, SMD, ORCA-2-JSON               
  Dimitrios Liakos       : Extrapolation schemes; Compound Job, initial MDCI parallelization 
  Dimitrios Manganas     : Further ROCIS development; embedding schemes. LFT, Crystal Embedding 
  Dimitrios Pantazis     : SARC Basis sets                               
  Anastasios Papadopoulos: AUTO-CI, single reference methods and gradients 
  Taras Petrenko         : pre 6.0 DFT Hessian and TD-DFT gradient, (ASA, deprecated), ECA, 1-Electron XAS/XES, NRVS 
  Peter Pinski           : DLPNO-MP2, DLPNO-MP2 Gradient                 
  Christoph Reimann      : Effective Core Potentials                     
  Marius Retegan         : Local ZFS, SOC                                
  Christoph Riplinger    : Optimizer, TS searches, QM/MM, DLPNO-CCSD(T), (RO)-DLPNO pert. Triples 
  Michael Roemelt        : Original ROCIS implementation                 
  Masaaki Saitow         : Open-shell DLPNO-CCSD energy and density      
  Barbara Sandhoefer     : DKH picture change effects                    
  Kantharuban Sivalingam : CASSCF convergence/infrastructure, NEVPT2 and variants, FIC-MRCI 
  Bernardo de Souza      : ESD, SOC TD-DFT                               
  Georgi L. Stoychev     : AutoAux, RI-MP2 NMR, DLPNO-MP2 response, X2C  
  Van Anh Tran           : RI-MP2 g-tensors                              
  Willem Van den Heuvel  : Paramagnetic NMR                              
  Zikuan Wang            : NOTCH, Electric field optimization            
  Frank Wennmohs         : Technical directorship and infrastructure     
  Hang Xu                : AUTO-CI-Response properties                   
                                                                         
[FACCTs GmbH]                                                            
  Markus Bursch, Miquel Garcia-Rates, Christoph Riplinger, Bernardo de Souza, Georgi L. Stoychev 
                                                                 
  APM, Basis sets (HGBS, AHGBS, def-TZVP (Ac-Lr), def2-XVPD (La-Lu)), CI-OPT, improved COSX, DLPNO-Multilevel,           
  DOCKER, DRACO, updates on ESD, GOAT, IRC, LR-CPCM, MBIS, meta-GGA TD-DFT gradient, ML-optimized integration grids, 
  MM, NACMEs, nearIR, NEB, NEB-TS, NL-DFT gradient (VV10), 2- and 3-layer-ONIOM, interface openCOSMO-RS, QMMM,   
  Crystal-QMMM, SF, symmetry and pop. for TD-DFT, r2SCAN hybrids, SOLVATOR                                   
                                                                         
[Other institutions]                                                     
  V. Asgeirsson          : NEB                                           
  Christoph Bannwarth    : sTDA-DFT, sTD-DFT, PBEh-3c, B97-3c, D3        
  Sebastian Ehlert       : rSCAN, r2SCAN, r2SCAN-3c, D4, dhf basis sets  
  Marvin Friede          : D4 for Fr, Ra, Ac-Lr                          
  Lars Goerigk           : TD-DFT with DH, B97 family of functionals     
  Stefan Grimme          : VdW corrections, initial TS optimization, DFT functionals, gCP, sTDA/sTD-DF 
  Waldemar Hujo          : DFT-NL                                        
  H. Jonsson             : NEB                                           
  Holger Kruse           : gCP                                           
  Marcel Mueller         : wB97X-3c, vDZP basis set                      
  Hagen Neugebauer       : wr2SCAN                                       
  Tobias Risthaus        : range-separated hybrid DFT                    
  Lukas Wittmann         : regularized MP2, r2SCAN double-hybrids, wr2SCAN        
                                                                         
We gratefully acknowledge several colleagues who have allowed us to      
interface, adapt or use parts of their codes:                            
  Ed Valeev, F. Pavosevic, A. Kumar             : LibInt (2-el integral package), F12 methods 
  Garnet Chan, S. Sharma, J. Yang, R. Olivares  : DMRG                   
  Ulf Ekstrom                                   : XCFun DFT Library      
  Mihaly Kallay                                 : mrcc  (arbitrary order and MRCC methods)
  Frank Weinhold                                : gennbo (NPA and NBO analysis)           
  Simon Mueller                                 : openCOSMO-RS                            
  Christopher J. Cramer and Donald G. Truhlar   : smd solvation model                     
  S Lehtola, MJT Oliveira, MAL Marques          : LibXC Library                           
  Liviu Ungur et al                             : ANISO software                          


 Your calculation uses the libint2 library for the computation of 2-el integrals
 For citations please refer to: http://libint.valeyev.net

 Your ORCA version has been built with support for libXC version: 6.2.2
 For citations please refer to: https://libxc.gitlab.io

 This ORCA versions uses:
   CBLAS   interface :  Fast vector & matrix operations
   LAPACKE interface :  Fast linear algebra routines
   SCALAPACK package :  Parallel linear algebra routines
   Shared memory     :  Shared parallel matrices
   BLAS/LAPACK       :  OpenBLAS 0.3.27  USE64BITINT DYNAMIC_ARCH NO_AFFINITY SkylakeX SINGLE_THREADED
        Core in use  :  SkylakeX
   Copyright (c) 2011-2014, The OpenBLAS Project


NOTE: MaxCore=5000 MB was set to SCF,MP2,MDCI,CIPSI,MRCI and CIS
      => If you want to overwrite this, your respective input block should be placed after the MaxCore statement
Your calculation utilizes the atom-pairwise dispersion correction
with the Becke-Johnson damping scheme (D3BJ)


Warning: RI is on but no J-basis has been assigned. Assigning Def2/J (nothing to worry about!)
================================================================================

----- Orbital basis set information -----
Your calculation utilizes the basis: def2-TZVP
   F. Weigend and R. Ahlrichs, Phys. Chem. Chem. Phys. 7, 3297 (2005).

----- AuxJ basis set information -----
Your calculation utilizes the auxiliary basis: def2/J
   F. Weigend, Phys. Chem. Chem. Phys. 8, 1057 (2006).

================================================================================
                                        WARNINGS
                       Please study these warnings very carefully!
================================================================================

WARNING: Old DensityContainer found on disk!
         Will remove this file - 
         If you want to keep old densities, please start your calculation with a different basename. 


WARNING: Geometry Optimization
  ===> : Switching off AutoStart
         For restart on a previous wavefunction, please use MOREAD

================================================================================
                                       INPUT FILE
================================================================================
NAME = DMC.inp
|  1> ! Opt B3LYP def2-TZVP TightSCF TightOpt D3BJ RIJCOSX
|  2> 
|  3> %maxcore 5000
|  4> 
|  5> %pal
|  6> nprocs 32
|  7> end
|  8> 
|  9> * xyz 0 1
| 10> O         -1.10230       -0.69800        0.00020
| 11> O          1.10230       -0.69800        0.00020
| 12> O          0.00010        1.32640        0.00020
| 13> C          0.00000        0.10280        0.00050
| 14> C         -2.36110       -0.01660       -0.00060
| 15> C          2.36100       -0.01660       -0.00060
| 16> H         -2.45960        0.59780        0.89950
| 17> H         -3.15470       -0.76840       -0.00080
| 18> H         -2.45870        0.59750       -0.90100
| 19> H          3.15470       -0.76850       -0.00090
| 20> H          2.45960        0.59780        0.89950
| 21> H          2.45870        0.59740       -0.90090
| 22> *
| 23> 
| 24>                          ****END OF INPUT****
================================================================================

                       *****************************
                       * Geometry Optimization Run *
                       *****************************

Geometry optimization settings:
Update method            Update   .... BFGS
Choice of coordinates    CoordSys .... (2022) Redundant Internals
Initial Hessian          InHess   .... Almloef's Model
Max. no of cycles        MaxIter  .... 50

Convergence Tolerances:
Energy Change            TolE     ....  1.0000e-06 Eh
Max. Gradient            TolMAXG  ....  1.0000e-04 Eh/bohr
RMS Gradient             TolRMSG  ....  3.0000e-05 Eh/bohr
Max. Displacement        TolMAXD  ....  1.0000e-03 bohr
RMS Displacement         TolRMSD  ....  6.0000e-04 bohr
Strict Convergence                .... False

------------------------------------------------------------------------------
                        ORCA OPTIMIZATION COORDINATE SETUP
------------------------------------------------------------------------------

The optimization will be done in redundant internal coordinates (2022)
Making redundant internal coordinates   ...  (2022 redundants) done
Evaluating the initial hessian          ...  (Almloef) done
Evaluating the coordinates              ...  done
Calculating the B-matrix                .... done
Calculating the G-matrix                .... done
Diagonalizing the G-matrix              .... done
Small eigenvalue found = 2.780e-02
The first mode is                       ....    8
The number of degrees of freedom        ....   30

    -----------------------------------------------------------------
                    Redundant Internal Coordinates


    -----------------------------------------------------------------
         Definition                    Initial Value    Approx d2E/dq
    -----------------------------------------------------------------
      1. B(C   3,O   1)                  1.3625         0.619135   
      2. B(C   3,O   2)                  1.2236         1.031231   
      3. B(C   3,O   0)                  1.3625         0.619135   
      4. B(C   4,O   0)                  1.4314         0.480658   
      5. B(C   5,O   1)                  1.4313         0.480814   
      6. B(H   6,C   4)                  1.0942         0.354529   
      7. B(H   7,C   4)                  1.0932         0.355941   
      8. B(H   8,C   4)                  1.0942         0.354532   
      9. B(H   9,C   5)                  1.0933         0.355756   
     10. B(H  10,C   5)                  1.0943         0.354518   
     11. B(H  11,C   5)                  1.0941         0.354701   
     12. A(C   3,O   0,C   4)          115.5752         0.409306   
     13. A(C   3,O   1,C   5)          115.5733         0.409330   
     14. A(O   1,C   3,O   2)          125.9930         0.469716   
     15. A(O   0,C   3,O   1)          108.0046         0.428196   
     16. A(O   0,C   3,O   2)          126.0024         0.469716   
     17. A(O   0,C   4,H   7)          108.1223         0.335434   
     18. A(O   0,C   4,H   6)          110.2423         0.335213   
     19. A(H   6,C   4,H   8)          110.7151         0.289420   
     20. A(O   0,C   4,H   8)          110.2464         0.335213   
     21. A(H   7,C   4,H   8)          108.7269         0.289601   
     22. A(H   6,C   4,H   7)          108.7204         0.289600   
     23. A(H   9,C   5,H  10)          108.7209         0.289575   
     24. A(O   1,C   5,H  10)          110.2480         0.335229   
     25. A(O   1,C   5,H  11)          110.2521         0.335258   
     26. A(O   1,C   5,H   9)          108.1202         0.335423   
     27. A(H  10,C   5,H  11)          110.7150         0.289440   
     28. A(H   9,C   5,H  11)          108.7170         0.289599   
     29. D(O   2,C   3,O   1,C   5)     -0.0029         0.028118   
     30. D(O   0,C   3,O   1,C   5)    179.9532         0.028118   
     31. D(O   1,C   3,O   0,C   4)   -179.9532         0.028118   
     32. D(O   2,C   3,O   0,C   4)      0.0029         0.028118   
     33. D(H   7,C   4,O   0,C   3)    179.9981         0.018226   
     34. D(H   8,C   4,O   0,C   3)     61.2618         0.018226   
     35. D(H   6,C   4,O   0,C   3)    -61.2758         0.018226   
     36. D(H  11,C   5,O   1,C   3)    -61.2663         0.018238   
     37. D(H  10,C   5,O   1,C   3)     61.2788         0.018238   
     38. D(H   9,C   5,O   1,C   3)   -179.9926         0.018238   
    -----------------------------------------------------------------

Number of atoms                         .... 12
Number of degrees of freedom            .... 38


         *************************************************************
         *                GEOMETRY OPTIMIZATION CYCLE   1            *
         *************************************************************
---------------------------------
CARTESIAN COORDINATES (ANGSTROEM)
---------------------------------
  O     -1.102300   -0.698000    0.000200
  O      1.102300   -0.698000    0.000200
  O      0.000100    1.326400    0.000200
  C      0.000000    0.102800    0.000500
  C     -2.361100   -0.016600   -0.000600
  C      2.361000   -0.016600   -0.000600
  H     -2.459600    0.597800    0.899500
  H     -3.154700   -0.768400   -0.000800
  H     -2.458700    0.597500   -0.901000
  H      3.154700   -0.768500   -0.000900
  H      2.459600    0.597800    0.899500
  H      2.458700    0.597400   -0.900900

----------------------------
CARTESIAN COORDINATES (A.U.)
----------------------------
  NO LB      ZA    FRAG     MASS         X           Y           Z
   0 O     8.0000    0    15.999   -2.083045   -1.319029    0.000378
   1 O     8.0000    0    15.999    2.083045   -1.319029    0.000378
   2 O     8.0000    0    15.999    0.000189    2.506533    0.000378
   3 C     6.0000    0    12.011    0.000000    0.194264    0.000945
   4 C     6.0000    0    12.011   -4.461832   -0.031369   -0.001134
   5 C     6.0000    0    12.011    4.461643   -0.031369   -0.001134
   6 H     1.0000    0     1.008   -4.647970    1.129678    1.699809
   7 H     1.0000    0     1.008   -5.961519   -1.452066   -0.001512
   8 H     1.0000    0     1.008   -4.646270    1.129111   -1.702643
   9 H     1.0000    0     1.008    5.961519   -1.452255   -0.001701
  10 H     1.0000    0     1.008    4.647970    1.129678    1.699809
  11 H     1.0000    0     1.008    4.646270    1.128922   -1.702454

--------------------------------
INTERNAL COORDINATES (ANGSTROEM)
--------------------------------
 O      0   0   0     0.000000000000     0.00000000     0.00000000
 O      1   0   0     2.204600000000     0.00000000     0.00000000
 O      2   1   0     2.305003297178    61.43358104     0.00000000
 C      3   2   1     1.223600040863    28.57110468     0.02937314
 C      1   2   3     1.431392343140   151.57289318     0.06726827
 C      2   1   3     1.431304401586   151.57098757   359.93273173
 H      5   1   2     1.094243857648   110.24233489   298.66637734
 H      5   1   2     1.093162494783   108.12227189   179.94029331
 H      5   1   2     1.094241623226   110.24639625    61.20394637
 H      6   2   1     1.093303887307   108.12016858   180.06521880
 H      6   2   1     1.094252863830   110.24798296    61.33657054
 H      6   2   1     1.094112142333   110.25206353   298.79148767

---------------------------
INTERNAL COORDINATES (A.U.)
---------------------------
 O      0   0   0     0.000000000000     0.00000000     0.00000000
 O      1   0   0     4.166090234843     0.00000000     0.00000000
 O      2   1   0     4.355824969451    61.43358104     0.00000000
 C      3   2   1     2.312268974686    28.57110468     0.02937314
 C      1   2   3     2.704939518727   151.57289318     0.06726827
 C      2   1   3     2.704773333274   151.57098757   359.93273173
 H      5   1   2     2.067821214680   110.24233489   298.66637734
 H      5   1   2     2.065777735014   108.12227189   179.94029331
 H      5   1   2     2.067816992234   110.24639625    61.20394637
 H      6   2   1     2.066044928161   108.12016858   180.06521880
 H      6   2   1     2.067838233898   110.24798296    61.33657054
 H      6   2   1     2.067572308807   110.25206353   298.79148767

---------------------
BASIS SET INFORMATION
---------------------
There are 3 groups of distinct atoms

 Group   1 Type O   : 11s6p2d1f contracted to 5s3p2d1f pattern {62111/411/11/1}
 Group   2 Type C   : 11s6p2d1f contracted to 5s3p2d1f pattern {62111/411/11/1}
 Group   3 Type H   : 5s1p contracted to 3s1p pattern {311/1}

Atom   0O    basis set group =>   1
Atom   1O    basis set group =>   1
Atom   2O    basis set group =>   1
Atom   3C    basis set group =>   2
Atom   4C    basis set group =>   2
Atom   5C    basis set group =>   2
Atom   6H    basis set group =>   3
Atom   7H    basis set group =>   3
Atom   8H    basis set group =>   3
Atom   9H    basis set group =>   3
Atom  10H    basis set group =>   3
Atom  11H    basis set group =>   3
---------------------------------
AUXILIARY/J BASIS SET INFORMATION
---------------------------------
There are 3 groups of distinct atoms

 Group   1 Type O   : 12s5p4d2f1g contracted to 6s4p3d1f1g pattern {711111/2111/211/2/1}
 Group   2 Type C   : 12s5p4d2f1g contracted to 6s4p3d1f1g pattern {711111/2111/211/2/1}
 Group   3 Type H   : 5s2p1d contracted to 3s1p1d pattern {311/2/1}

Atom   0O    basis set group =>   1
Atom   1O    basis set group =>   1
Atom   2O    basis set group =>   1
Atom   3C    basis set group =>   2
Atom   4C    basis set group =>   2
Atom   5C    basis set group =>   2
Atom   6H    basis set group =>   3
Atom   7H    basis set group =>   3
Atom   8H    basis set group =>   3
Atom   9H    basis set group =>   3
Atom  10H    basis set group =>   3
Atom  11H    basis set group =>   3
--------------------------------------------------------------------------
By default, for Open MPI 4.0 and later, infiniband ports on a device
are not used by default.  The intent is to use UCX for these devices.
You can override this policy by setting the btl_openib_allow_ib MCA parameter
to true.

  Local host:              psid06
  Local adapter:           mlx4_0
  Local port:              1

--------------------------------------------------------------------------
--------------------------------------------------------------------------
WARNING: There was an error initializing an OpenFabrics device.

  Local host:   psid06
  Local device: mlx4_0
--------------------------------------------------------------------------


           ************************************************************
           *        Program running with 32 parallel MPI-processes    *
           *              working on a common directory               *
           ************************************************************
------------------------------------------------------------------------------
                             ORCA STARTUP CALCULATIONS
                           -- RI-GTO INTEGRALS CHOSEN --
------------------------------------------------------------------------------
------------------------------------------------------------------------------
                   ___                                                        
                  /   \      - P O W E R E D   B Y -                         
                 /     \                                                     
                 |  |  |   _    _      __       _____    __    __             
                 |  |  |  | |  | |    /  \     |  _  \  |  |  /  |          
                  \  \/   | |  | |   /    \    | | | |  |  | /  /          
                 / \  \   | |__| |  /  /\  \   | |_| |  |  |/  /          
                |  |  |   |  __  | /  /__\  \  |    /   |      \           
                |  |  |   | |  | | |   __   |  |    \   |  |\   \          
                \     /   | |  | | |  |  |  |  | |\  \  |  | \   \       
                 \___/    |_|  |_| |__|  |__|  |_| \__\ |__|  \__/        
                                                                              
                      - O R C A' S   B I G   F R I E N D -                    
                                      &                                       
                       - I N T E G R A L  F E E D E R -                       
                                                                              
 v1 FN, 2020, v2 2021, v3 2022-2024                                           
------------------------------------------------------------------------------


----------------------
SHARK INTEGRAL PACKAGE
----------------------

Number of atoms                             ...     12
Number of basis functions                   ...    222
Number of shells                            ...     90
Maximum angular momentum                    ...      3
Integral batch strategy                     ... SHARK/LIBINT Hybrid
RI-J (if used) integral strategy            ... SPLIT-RIJ (Revised 2003 algorithm where possible)
Printlevel                                  ...      1
Contraction scheme used                     ... SEGMENTED contraction
Prescreening option                         ... SCHWARTZ
   Thresh                                   ... 2.500e-11
   Tcut                                     ... 2.500e-12
   Tpresel                                  ... 2.500e-12 
Coulomb Range Separation                    ... NOT USED
Exchange Range Separation                   ... NOT USED
Multipole approximations                    ... NOT USED
Finite Nucleus Model                        ... NOT USED
CABS basis                                  ... NOT available
Auxiliary Coulomb fitting basis             ... AVAILABLE
   # of basis functions in Aux-J            ...    360
   # of shells in Aux-J                     ...    120
   Maximum angular momentum in Aux-J        ...      4
Auxiliary J/K fitting basis                 ... NOT available
Auxiliary Correlation fitting basis         ... NOT available
Auxiliary 'external' fitting basis          ... NOT available

Checking pre-screening integrals            ... done (  0.0 sec) Dimension = 90
Check shell pair data                       ... done (  0.0 sec)
Shell pair information
Shell pair cut-off parameter TPreSel        ...   2.5e-12
Total number of shell pairs                 ...      4095
Shell pairs after pre-screening             ...      3752
Total number of primitive shell pairs       ...     12396
Primitive shell pairs kept                  ...      8752
          la=0 lb=0:   1038 shell pairs
          la=1 lb=0:   1058 shell pairs
          la=1 lb=1:    282 shell pairs
          la=2 lb=0:    534 shell pairs
          la=2 lb=1:    274 shell pairs
          la=2 lb=2:     77 shell pairs
          la=3 lb=0:    262 shell pairs
          la=3 lb=1:    136 shell pairs
          la=3 lb=2:     70 shell pairs
          la=3 lb=3:     21 shell pairs

Calculating one electron integrals          ... done (  0.0 sec)
Calculating RI/J V-Matrix + Cholesky decomp.... done (  0.1 sec)
Calculating Nuclear repulsion               ... done (  0.0 sec) ENN=    249.064573115065 Eh

Diagonalization of the overlap matrix:
Smallest eigenvalue                        ... 9.750e-04
Time for diagonalization                   ...    0.005 sec
Threshold for overlap eigenvalues          ... 1.000e-07
Number of eigenvalues below threshold      ... 0
Time for construction of square roots      ...    0.004 sec
Total time needed                          ...    0.015 sec

-------------------
DFT GRID GENERATION
-------------------

General Integration Accuracy     IntAcc      ... 4.388
Radial Grid Type                 RadialGrid  ... OptM3 with GC (2021)
Angular Grid (max. ang.)         AngularGrid ... 4 (Lebedev-302)
Angular grid pruning method      GridPruning ... 4 (adaptive)
Weight generation scheme         WeightScheme... mBecke (2022)
Basis function cutoff            BFCut       ... 1.0000e-11
Integration weight cutoff        WCut        ... 1.0000e-14
Partially contracted basis set               ... off
Rotationally invariant grid construction     ... off
Angular grids for H and He will be reduced by one unit

Total number of grid points                  ...    55947
Total number of batches                      ...      880
Average number of points per batch           ...       63
Average number of grid points per atom       ...     4662

--------------------
COSX GRID GENERATION
--------------------

GRIDX 1
-------
General Integration Accuracy     IntAcc      ... 3.816
Radial Grid Type                 RadialGrid  ... OptM3 with GC (2021)
Angular Grid (max. ang.)         AngularGrid ... 1 (Lebedev-50)
Angular grid pruning method      GridPruning ... 4 (adaptive)
Weight generation scheme         WeightScheme... mBecke (2022)
Basis function cutoff            BFCut       ... 1.0000e-11
Integration weight cutoff        WCut        ... 1.0000e-14
Partially contracted basis set               ... on
Rotationally invariant grid construction     ... off
Angular grids for H and He will be reduced by one unit

Total number of grid points                  ...     7147
Total number of batches                      ...       63
Average number of points per batch           ...      113
Average number of grid points per atom       ...      596
UseSFitting                                  ... on

GRIDX 2
-------
General Integration Accuracy     IntAcc      ... 4.020
Radial Grid Type                 RadialGrid  ... OptM3 with GC (2021)
Angular Grid (max. ang.)         AngularGrid ... 2 (Lebedev-110)
Angular grid pruning method      GridPruning ... 4 (adaptive)
Weight generation scheme         WeightScheme... mBecke (2022)
Basis function cutoff            BFCut       ... 1.0000e-11
Integration weight cutoff        WCut        ... 1.0000e-14
Partially contracted basis set               ... on
Rotationally invariant grid construction     ... off
Angular grids for H and He will be reduced by one unit

Total number of grid points                  ...    15674
Total number of batches                      ...      128
Average number of points per batch           ...      122
Average number of grid points per atom       ...     1306
UseSFitting                                  ... on

GRIDX 3
-------
General Integration Accuracy     IntAcc      ... 4.338
Radial Grid Type                 RadialGrid  ... OptM3 with GC (2021)
Angular Grid (max. ang.)         AngularGrid ... 3 (Lebedev-194)
Angular grid pruning method      GridPruning ... 4 (adaptive)
Weight generation scheme         WeightScheme... mBecke (2022)
Basis function cutoff            BFCut       ... 1.0000e-11
Integration weight cutoff        WCut        ... 1.0000e-14
Partially contracted basis set               ... on
Rotationally invariant grid construction     ... off
Angular grids for H and He will be reduced by one unit

Total number of grid points                  ...    34551
Total number of batches                      ...      276
Average number of points per batch           ...      125
Average number of grid points per atom       ...     2879
UseSFitting                                  ... on
Initializing property integral containers    ... done (  0.0 sec)

SHARK setup successfully completed in   1.0 seconds

Maximum memory used throughout the entire STARTUP-calculation: 18.2 MB
[psid06:188336] 31 more processes have sent help message help-mpi-btl-openib.txt / ib port not selected
[psid06:188336] Set MCA parameter "orte_base_help_aggregate" to 0 to see all help / error messages
[psid06:188336] 31 more processes have sent help message help-mpi-btl-openib.txt / error in device init
--------------------------------------------------------------------------
By default, for Open MPI 4.0 and later, infiniband ports on a device
are not used by default.  The intent is to use UCX for these devices.
You can override this policy by setting the btl_openib_allow_ib MCA parameter
to true.

  Local host:              psid06
  Local adapter:           mlx4_0
  Local port:              1

--------------------------------------------------------------------------
--------------------------------------------------------------------------
WARNING: There was an error initializing an OpenFabrics device.

  Local host:   psid06
  Local device: mlx4_0
--------------------------------------------------------------------------


           ************************************************************
           *        Program running with 32 parallel MPI-processes    *
           *              working on a common directory               *
           ************************************************************
-------------------------------------------------------------------------------
                                 ORCA GUESS
                   Start orbitals & Density for SCF / CASSCF
-------------------------------------------------------------------------------

------------
SCF SETTINGS
------------
Hamiltonian:
 Density Functional     Method          .... DFT(GTOs)
 Exchange Functional    Exchange        .... B88
   X-Alpha parameter    XAlpha          ....  0.666667
   Becke's b parameter  XBeta           ....  0.004200
 Correlation Functional Correlation     .... LYP
 LDA part of GGA corr.  LDAOpt          .... VWN-5
 Gradients option       PostSCFGGA      .... off
 Hybrid DFT is turned on
   Fraction HF Exchange ScalHFX         ....  0.200000
   Scaling of DF-GGA-X  ScalDFX         ....  0.720000
   Scaling of DF-GGA-C  ScalDFC         ....  0.810000
   Scaling of DF-LDA-C  ScalLDAC        ....  1.000000
   Perturbative correction              ....  0.000000
   NL short-range parameter             ....  4.800000
 RI-approximation to the Coulomb term is turned on
   Number of AuxJ basis functions       .... 360
   RIJ-COSX (HFX calculated with COS-X)).... on


General Settings:
 Integral files         IntName         .... DMC
 Hartree-Fock type      HFTyp           .... RHF
 Total Charge           Charge          ....    0
 Multiplicity           Mult            ....    1
 Number of Electrons    NEL             ....   48
 Basis Dimension        Dim             ....  222
 Nuclear Repulsion      ENuc            ....    249.0645731151 Eh

Convergence Acceleration:
 AO-DIIS                CNVDIIS         .... on
   Start iteration      DIISMaxIt       ....    12
   Startup error        DIISStart       ....  0.200000
   # of expansion vecs  DIISMaxEq       ....     5
   Bias factor          DIISBfac        ....   1.050
   Max. coefficient     DIISMaxC        ....  10.000
 MO-DIIS                CNVKDIIS        .... off
 Trust-Rad. Augm. Hess. CNVTRAH         .... auto
   Auto Start mean grad. ratio tolernc. ....  1.125000
   Auto Start start iteration           ....    50
   Auto Start num. interpolation iter.  ....    10
   Max. Number of Micro iterations      ....    24
   Max. Number of Macro iterations      .... Maxiter - #DIIS iter
   Number of Davidson start vectors     ....     2
   Converg. threshold    (grad. norm)   ....   1.000e-05
   Grad. Scal. Fac. for Micro threshold ....   0.100
   Minimum threshold for Micro iter.    ....   1.000e-02
   NR start threshold (gradient norm)   ....   1.000e-04
   Initial trust radius                 ....   0.400
   Minimum AH scaling param. (alpha)    ....   1.000
   Maximum AH scaling param. (alpha)    .... 1000.000
   Quad. conv. algorithm                .... NR
   White noise on init. David. guess    .... on
   Maximum white noise                  ....   0.010
   Pseudo random numbers                .... off
   Inactive MOs                         .... canonical
   Orbital update algorithm             .... Taylor
   Preconditioner                       .... Diag
   Full preconditioner red. dimension   ....   250
 SOSCF                  CNVSOSCF        .... on
   Start iteration      SOSCFMaxIt      ....   150
   Startup grad/error   SOSCFStart      ....  0.003300
   Hessian update       SOSCFHessUp     .... L-BFGS
 Level Shifting         CNVShift        .... on
   Level shift para.    LevelShift      ....    0.2500
   Turn off err/grad.   ShiftErr        ....    0.0010
 Zerner damping         CNVZerner       .... off
 Static damping         CNVDamp         .... on
   Fraction old density DampFac         ....    0.7000
   Max. Damping (<1)    DampMax         ....    0.9800
   Min. Damping (>=0)   DampMin         ....    0.0000
   Turn off err/grad.   DampErr         ....    0.1000

SCF Procedure:
 Maximum # iterations   MaxIter         ....   125
 SCF integral mode      SCFMode         .... Direct
   Integral package                     .... SHARK and LIBINT hybrid scheme
 Reset frequency        DirectResetFreq ....    20
 Integral Threshold     Thresh          ....  2.500e-11 Eh
 Primitive CutOff       TCut            ....  2.500e-12 Eh

Convergence Tolerance:
 Convergence Check Mode ConvCheckMode   .... Total+1el-Energy
 Convergence forced     ConvForced      .... 0
 Energy Change          TolE            ....  1.000e-08 Eh
 1-El. energy change                    ....  1.000e-05 Eh
 Orbital Gradient       TolG            ....  1.000e-05
 Orbital Rotation angle TolX            ....  1.000e-05
 DIIS Error             TolErr          ....  5.000e-07

------------------------------
INITIAL GUESS: MODEL POTENTIAL
------------------------------
Loading Hartree-Fock densities                     ... done
Calculating cut-offs                               ... done
Initializing the effective Hamiltonian             ... done
Setting up the integral package (SHARK)            ... done
Starting the Coulomb interaction                   ... done (   0.1 sec)
Making the grid                                    ... done (   0.1 sec)
Mapping shells                                     ... done
Starting the XC term evaluation                    ... done (   0.0 sec)
  promolecular density results
     # of electrons  =     47.996079255
     EX              =    -41.776771973
     EC              =     -1.654879723
     EX+EC           =    -43.431651696
Transforming the Hamiltonian                       ... done (   0.0 sec)
Diagonalizing the Hamiltonian                      ... done (   0.0 sec)
Back transforming the eigenvectors                 ... done (   0.0 sec)
Now organizing SCF variables                       ... done
                      ------------------
                      INITIAL GUESS DONE (   0.3 sec)
                      ------------------
             **** ENERGY FILE WAS UPDATED (DMC.en.tmp) ****
Finished Guess after   1.1 sec
Maximum memory used throughout the entire GUESS-calculation: 12.2 MB
[psid06:188456] 31 more processes have sent help message help-mpi-btl-openib.txt / ib port not selected
[psid06:188456] Set MCA parameter "orte_base_help_aggregate" to 0 to see all help / error messages
[psid06:188456] 31 more processes have sent help message help-mpi-btl-openib.txt / error in device init
--------------------------------------------------------------------------
By default, for Open MPI 4.0 and later, infiniband ports on a device
are not used by default.  The intent is to use UCX for these devices.
You can override this policy by setting the btl_openib_allow_ib MCA parameter
to true.

  Local host:              psid06
  Local adapter:           mlx4_0
  Local port:              1

--------------------------------------------------------------------------
--------------------------------------------------------------------------
WARNING: There was an error initializing an OpenFabrics device.

  Local host:   psid06
  Local device: mlx4_0
--------------------------------------------------------------------------


           ************************************************************
           *        Program running with 32 parallel MPI-processes    *
           *              working on a common directory               *
           ************************************************************

-------------------------------------------------------------------------------------------
                                      ORCA LEAN-SCF
                              memory conserving SCF solver
-------------------------------------------------------------------------------------------

----------------------------------------D-I-I-S--------------------------------------------
Iteration    Energy (Eh)           Delta-E    RMSDP     MaxDP     DIISErr   Damp  Time(sec)
-------------------------------------------------------------------------------------------
               ***  Starting incremental Fock matrix formation  ***
    1    -343.3587340144221116     0.00e+00  1.55e-03  6.24e-02  3.18e-01  0.700   0.6
    2    -343.4651794914794891    -1.06e-01  9.46e-04  3.40e-02  1.18e-01  0.700   0.5
                               ***Turning on AO-DIIS***
    3    -343.5002357049501143    -3.51e-02  3.63e-04  6.63e-03  3.02e-02  0.700   0.4
    4    -343.5235093805370070    -2.33e-02  5.30e-04  1.27e-02  1.30e-02  0.000   0.5
    5    -343.5766704795839814    -5.32e-02  1.54e-04  2.63e-03  5.80e-03  0.000   0.4
                              *** Initializing SOSCF ***
---------------------------------------S-O-S-C-F--------------------------------------
Iteration    Energy (Eh)           Delta-E    RMSDP     MaxDP     MaxGrad    Time(sec)
--------------------------------------------------------------------------------------
    6    -343.5768782410859785    -2.08e-04  5.70e-05  1.06e-03  2.30e-03     0.5
               *** Restarting incremental Fock matrix formation ***
    7    -343.5769069170003149    -2.87e-05  4.51e-05  1.35e-03  6.41e-04     0.5
    8    -343.5768937221520218     1.32e-05  2.42e-05  9.68e-04  1.59e-03     0.5
    9    -343.5769116775053362    -1.80e-05  4.51e-06  1.81e-04  9.03e-05     0.5
[psid06:188564] 31 more processes have sent help message help-mpi-btl-openib.txt / ib port not selected
[psid06:188564] Set MCA parameter "orte_base_help_aggregate" to 0 to see all help / error messages
[psid06:188564] 31 more processes have sent help message help-mpi-btl-openib.txt / error in device init
   10    -343.5769115122817539     1.65e-07  2.76e-06  9.61e-05  1.41e-04     0.4
   11    -343.5769117805496080    -2.68e-07  3.58e-07  8.52e-06  3.56e-06     0.5
   12    -343.5769117783894444     2.16e-09  1.65e-07  4.66e-06  3.84e-06     0.4
                 **** Energy Check signals convergence ****

               *****************************************************
               *                     SUCCESS                       *
               *           SCF CONVERGED AFTER  12 CYCLES          *
               *****************************************************

Recomputing exchange energy using gridx3       ... done (    0.318 sec)
Old exchange energy                            :     -8.464168306 Eh
New exchange energy                            :     -8.464148136 Eh
Exchange energy change after final integration :      0.000020170 Eh
Total energy after final integration           :   -343.576891608 Eh
             **** ENERGY FILE WAS UPDATED (DMC.en.tmp) ****

----------------
TOTAL SCF ENERGY
----------------

Total Energy       :       -343.57689160805188 Eh           -9349.20252 eV

Components:
Nuclear Repulsion  :        249.06457311506492 Eh            6777.39159 eV
Electronic Energy  :       -592.64148489345439 Eh          -16126.59466 eV
One Electron Energy:       -962.70151506122204 Eh          -26196.44003 eV
Two Electron Energy:        370.06003016776771 Eh           10069.84536 eV

Virial components:
Potential Energy   :       -685.52054493515834 Eh          -18653.96238 eV
Kinetic Energy     :        341.94365332710640 Eh            9304.75985 eV
Virial Ratio       :          2.00477633746102

DFT components:
N(Alpha)           :       24.000023513180 electrons
N(Beta)            :       24.000023513180 electrons
N(Total)           :       48.000047026360 electrons
E(X)               :      -33.700356471627 Eh       
E(C)               :       -1.952692587458 Eh       
E(XC)              :      -35.653049059085 Eh       

---------------
SCF CONVERGENCE
---------------

  Last Energy change         ...   -2.1602e-09  Tolerance :   1.0000e-08
  Last MAX-Density change    ...    4.6556e-06  Tolerance :   1.0000e-07
  Last RMS-Density change    ...    1.6481e-07  Tolerance :   5.0000e-09
  Last DIIS Error            ...    2.3000e-03  Tolerance :   5.0000e-07
  Last Orbital Gradient      ...    3.8350e-06  Tolerance :   1.0000e-05
  Last Orbital Rotation      ...    3.1605e-06  Tolerance :   1.0000e-05


----------------
ORBITAL ENERGIES
----------------

  NO   OCC          E(Eh)            E(eV) 
   0   2.0000     -19.179370      -521.8972 
   1   2.0000     -19.179356      -521.8968 
   2   2.0000     -19.118076      -520.2293 
   3   2.0000     -10.350251      -281.6447 
   4   2.0000     -10.230332      -278.3815 
   5   2.0000     -10.230315      -278.3810 
   6   2.0000      -1.134975       -30.8842 
   7   2.0000      -1.056028       -28.7360 
   8   2.0000      -1.018046       -27.7024 
   9   2.0000      -0.757483       -20.6121 
  10   2.0000      -0.697667       -18.9845 
  11   2.0000      -0.583953       -15.8902 
  12   2.0000      -0.545250       -14.8370 
  13   2.0000      -0.507530       -13.8106 
  14   2.0000      -0.494570       -13.4579 
  15   2.0000      -0.465167       -12.6578 
  16   2.0000      -0.447911       -12.1883 
  17   2.0000      -0.442088       -12.0298 
  18   2.0000      -0.404228       -10.9996 
  19   2.0000      -0.377808       -10.2807 
  20   2.0000      -0.361403        -9.8343 
  21   2.0000      -0.315315        -8.5802 
  22   2.0000      -0.312111        -8.4930 
  23   2.0000      -0.296844        -8.0775 
  24   0.0000       0.021189         0.5766 
  25   0.0000       0.037835         1.0295 
  26   0.0000       0.058817         1.6005 
  27   0.0000       0.059393         1.6162 
  28   0.0000       0.100776         2.7422 
  29   0.0000       0.101686         2.7670 
  30   0.0000       0.110944         3.0189 
  31   0.0000       0.119338         3.2473 
  32   0.0000       0.123043         3.3482 
  33   0.0000       0.180377         4.9083 
  34   0.0000       0.192521         5.2388 
*Only the first 10 virtual orbitals were printed.

                    ********************************
                    * MULLIKEN POPULATION ANALYSIS *
                    ********************************

-----------------------
MULLIKEN ATOMIC CHARGES
-----------------------
   0 O :   -0.264343
   1 O :   -0.264333
   2 O :   -0.368944
   3 C :    0.455986
   4 C :   -0.157228
   5 C :   -0.157227
   6 H :    0.124781
   7 H :    0.128507
   8 H :    0.124775
   9 H :    0.128483
  10 H :    0.124769
  11 H :    0.124773
Sum of atomic charges:   -0.0000000

--------------------------------
MULLIKEN REDUCED ORBITAL CHARGES
--------------------------------
  0 O s       :     3.769744  s :     3.769744
      pz      :     1.731521  p :     4.453363
      px      :     1.166064
      py      :     1.555778
      dz2     :     0.004676  d :     0.039164
      dxz     :     0.005920
      dyz     :     0.004389
      dx2y2   :     0.007263
      dxy     :     0.016915
      f0      :     0.000274  f :     0.002072
      f+1     :     0.000398
      f-1     :     0.000173
      f+2     :     0.000073
      f-2     :     0.000255
      f+3     :     0.000409
      f-3     :     0.000490

  1 O s       :     3.769733  s :     3.769733
      pz      :     1.731512  p :     4.453359
      px      :     1.166060
      py      :     1.555787
      dz2     :     0.004677  d :     0.039170
      dxz     :     0.005921
      dyz     :     0.004390
      dx2y2   :     0.007265
      dxy     :     0.016917
      f0      :     0.000274  f :     0.002072
      f+1     :     0.000398
      f-1     :     0.000173
      f+2     :     0.000073
      f-2     :     0.000255
      f+3     :     0.000409
      f-3     :     0.000490

  2 O s       :     3.825928  s :     3.825928
      pz      :     1.459411  p :     4.512021
      px      :     1.756305
      py      :     1.296306
      dz2     :     0.002665  d :     0.029220
      dxz     :     0.000097
      dyz     :     0.010524
      dx2y2   :     0.008477
      dxy     :     0.007457
      f0      :     0.000197  f :     0.001775
      f+1     :     0.000025
      f-1     :     0.000182
      f+2     :     0.000429
      f-2     :     0.000013
      f+3     :     0.000517
      f-3     :     0.000412

  3 C s       :     2.996355  s :     2.996355
      pz      :     0.800343  p :     2.220452
      px      :     0.683062
      py      :     0.737047
      dz2     :     0.009735  d :     0.296844
      dxz     :     0.046264
      dyz     :     0.073780
      dx2y2   :     0.061932
      dxy     :     0.105132
      f0      :     0.003409  f :     0.030364
      f+1     :     0.001347
      f-1     :     0.001712
      f+2     :     0.002932
      f-2     :     0.004357
      f+3     :     0.011576
      f-3     :     0.005031

  4 C s       :     3.254453  s :     3.254453
      pz      :     1.081657  p :     2.814920
      px      :     0.755322
      py      :     0.977941
      dz2     :     0.006321  d :     0.080243
      dxz     :     0.022176
      dyz     :     0.015602
      dx2y2   :     0.014702
      dxy     :     0.021443
      f0      :     0.000956  f :     0.007613
      f+1     :     0.000436
      f-1     :     0.001439
      f+2     :     0.000567
      f-2     :     0.000898
      f+3     :     0.001829
      f-3     :     0.001488

  5 C s       :     3.254423  s :     3.254423
      pz      :     1.081656  p :     2.814933
      px      :     0.755337
      py      :     0.977940
      dz2     :     0.006320  d :     0.080257
      dxz     :     0.022180
      dyz     :     0.015604
      dx2y2   :     0.014704
      dxy     :     0.021449
      f0      :     0.000956  f :     0.007615
      f+1     :     0.000436
      f-1     :     0.001440
      f+2     :     0.000567
      f-2     :     0.000898
      f+3     :     0.001830
      f-3     :     0.001489

  6 H s       :     0.854809  s :     0.854809
      pz      :     0.010149  p :     0.020410
      px      :     0.003172
      py      :     0.007088

  7 H s       :     0.851079  s :     0.851079
      pz      :     0.004438  p :     0.020414
      px      :     0.008306
      py      :     0.007670

  8 H s       :     0.854815  s :     0.854815
      pz      :     0.010155  p :     0.020410
      px      :     0.003170
      py      :     0.007086

  9 H s       :     0.851107  s :     0.851107
      pz      :     0.004437  p :     0.020410
      px      :     0.008305
      py      :     0.007669

 10 H s       :     0.854821  s :     0.854821
      pz      :     0.010149  p :     0.020410
      px      :     0.003172
      py      :     0.007088

 11 H s       :     0.854813  s :     0.854813
      pz      :     0.010155  p :     0.020414
      px      :     0.003171
      py      :     0.007087



                     *******************************
                     * LOEWDIN POPULATION ANALYSIS *
                     *******************************

----------------------
LOEWDIN ATOMIC CHARGES
----------------------
   0 O :    0.222454
   1 O :    0.222492
   2 O :    0.062867
   3 C :   -0.575852
   4 C :   -0.302884
   5 C :   -0.302960
   6 H :    0.111688
   7 H :    0.113570
   8 H :    0.111686
   9 H :    0.113603
  10 H :    0.111686
  11 H :    0.111650

-------------------------------
LOEWDIN REDUCED ORBITAL CHARGES
-------------------------------
  0 O s       :     3.270755  s :     3.270755
      pz      :     1.601753  p :     4.396152
      px      :     1.245780
      py      :     1.548619
      dz2     :     0.011050  d :     0.104093
      dxz     :     0.017759
      dyz     :     0.006967
      dx2y2   :     0.025008
      dxy     :     0.043309
      f0      :     0.000603  f :     0.006545
      f+1     :     0.000910
      f-1     :     0.000311
      f+2     :     0.000173
      f-2     :     0.000980
      f+3     :     0.002062
      f-3     :     0.001506

  1 O s       :     3.270713  s :     3.270713
      pz      :     1.601729  p :     4.396139
      px      :     1.245789
      py      :     1.548620
      dz2     :     0.011050  d :     0.104111
      dxz     :     0.017763
      dyz     :     0.006969
      dx2y2   :     0.025013
      dxy     :     0.043315
      f0      :     0.000603  f :     0.006546
      f+1     :     0.000910
      f-1     :     0.000311
      f+2     :     0.000173
      f-2     :     0.000980
      f+3     :     0.002063
      f-3     :     0.001507

  2 O s       :     3.417409  s :     3.417409
      pz      :     1.372286  p :     4.448852
      px      :     1.605839
      py      :     1.470726
      dz2     :     0.008540  d :     0.064888
      dxz     :     0.000112
      dyz     :     0.014932
      dx2y2   :     0.026795
      dxy     :     0.014509
      f0      :     0.000469  f :     0.005984
      f+1     :     0.000087
      f-1     :     0.001009
      f+2     :     0.000874
      f-2     :     0.000056
      f+3     :     0.001546
      f-3     :     0.001943

  3 C s       :     2.745723  s :     2.745723
      pz      :     0.782560  p :     2.601234
      px      :     0.842586
      py      :     0.976089
      dz2     :     0.074366  d :     1.046503
      dxz     :     0.121401
      dyz     :     0.201384
      dx2y2   :     0.250713
      dxy     :     0.398640
      f0      :     0.010231  f :     0.182391
      f+1     :     0.010153
      f-1     :     0.013730
      f+2     :     0.020839
      f-2     :     0.024635
      f+3     :     0.072057
      f-3     :     0.030747

  4 C s       :     2.867104  s :     2.867104
      pz      :     1.113849  p :     3.016256
      px      :     0.852348
      py      :     1.050059
      dz2     :     0.049655  d :     0.366136
      dxz     :     0.061574
      dyz     :     0.075762
      dx2y2   :     0.060854
      dxy     :     0.118292
      f0      :     0.005730  f :     0.053387
      f+1     :     0.006735
      f-1     :     0.004735
      f+2     :     0.006592
      f-2     :     0.005194
      f+3     :     0.012619
      f-3     :     0.011783

  5 C s       :     2.867078  s :     2.867078
      pz      :     1.113850  p :     3.016275
      px      :     0.852368
      py      :     1.050057
      dz2     :     0.049660  d :     0.366205
      dxz     :     0.061593
      dyz     :     0.075773
      dx2y2   :     0.060863
      dxy     :     0.118316
      f0      :     0.005732  f :     0.053401
      f+1     :     0.006736
      f-1     :     0.004736
      f+2     :     0.006592
      f-2     :     0.005196
      f+3     :     0.012624
      f-3     :     0.011784

  6 H s       :     0.827206  s :     0.827206
      pz      :     0.030654  p :     0.061106
      px      :     0.009308
      py      :     0.021144

  7 H s       :     0.826623  s :     0.826623
      pz      :     0.013556  p :     0.059807
      px      :     0.022552
      py      :     0.023699

  8 H s       :     0.827207  s :     0.827207
      pz      :     0.030668  p :     0.061107
      px      :     0.009302
      py      :     0.021136

  9 H s       :     0.826615  s :     0.826615
      pz      :     0.013548  p :     0.059782
      px      :     0.022543
      py      :     0.023691

 10 H s       :     0.827210  s :     0.827210
      pz      :     0.030653  p :     0.061104
      px      :     0.009308
      py      :     0.021144

 11 H s       :     0.827223  s :     0.827223
      pz      :     0.030675  p :     0.061127
      px      :     0.009308
      py      :     0.021143



                      *****************************
                      * MAYER POPULATION ANALYSIS *
                      *****************************

  NA   - Mulliken gross atomic population
  ZA   - Total nuclear charge
  QA   - Mulliken gross atomic charge
  VA   - Mayer's total valence
  BVA  - Mayer's bonded valence
  FA   - Mayer's free valence

  ATOM       NA         ZA         QA         VA         BVA        FA
  0 O      8.2643     8.0000    -0.2643     2.1045     2.1045     0.0000
  1 O      8.2643     8.0000    -0.2643     2.1045     2.1045    -0.0000
  2 O      8.3689     8.0000    -0.3689     2.1158     2.1158     0.0000
  3 C      5.5440     6.0000     0.4560     4.3657     4.3657    -0.0000
  4 C      6.1572     6.0000    -0.1572     3.8594     3.8594     0.0000
  5 C      6.1572     6.0000    -0.1572     3.8595     3.8595    -0.0000
  6 H      0.8752     1.0000     0.1248     0.9678     0.9678    -0.0000
  7 H      0.8715     1.0000     0.1285     0.9581     0.9581     0.0000
  8 H      0.8752     1.0000     0.1248     0.9678     0.9678     0.0000
  9 H      0.8715     1.0000     0.1285     0.9581     0.9581    -0.0000
 10 H      0.8752     1.0000     0.1248     0.9678     0.9678    -0.0000
 11 H      0.8752     1.0000     0.1248     0.9678     0.9678    -0.0000

  Mayer bond orders larger than 0.100000
B(  0-O ,  3-C ) :   1.1930 B(  0-O ,  4-C ) :   0.8992 B(  1-O ,  3-C ) :   1.1930 
B(  1-O ,  5-C ) :   0.8992 B(  2-O ,  3-C ) :   1.9410 B(  4-C ,  6-H ) :   0.9741 
B(  4-C ,  7-H ) :   0.9637 B(  4-C ,  8-H ) :   0.9741 B(  5-C ,  9-H ) :   0.9637 
B(  5-C , 10-H ) :   0.9741 B(  5-C , 11-H ) :   0.9741 

-------
TIMINGS
-------

Total SCF time: 0 days 0 hours 0 min 7 sec 

Total time                  ....       7.146 sec
Sum of individual times     ....       6.930 sec  ( 97.0%)

SCF preparation             ....       0.965 sec  ( 13.5%)
Fock matrix formation       ....       4.527 sec  ( 63.3%)
  Startup                   ....       0.239 sec  (  5.3% of F)
  Split-RI-J                ....       0.628 sec  ( 13.9% of F)
  Chain of spheres X        ....       2.097 sec  ( 46.3% of F)
  XC integration            ....       1.120 sec  ( 24.7% of F)
    XC Preparation          ....       0.000 sec  (  0.0% of XC)
    Basis function eval.    ....       0.095 sec  (  8.5% of XC)
    Density eval.           ....       0.061 sec  (  5.4% of XC)
    XC-Functional eval.     ....       0.021 sec  (  1.8% of XC)
    XC-Potential eval.      ....       0.121 sec  ( 10.8% of XC)
Diagonalization             ....       0.000 sec  (  0.0%)
Density matrix formation    ....       0.384 sec  (  5.4%)
Total Energy calculation    ....       0.191 sec  (  2.7%)
Population analysis         ....       0.088 sec  (  1.2%)
Orbital Transformation      ....       0.086 sec  (  1.2%)
Orbital Orthonormalization  ....       0.000 sec  (  0.0%)
DIIS solution               ....       0.429 sec  (  6.0%)
SOSCF solution              ....       0.262 sec  (  3.7%)
Finished LeanSCF after   7.2 sec

Maximum memory used throughout the entire LEANSCF-calculation: 19.3 MB


-------------------------------------------------------------------------------
                          DFT DISPERSION CORRECTION                            
                                                                               
                              DFTD3 V3.1  Rev 1                                
                          USING Becke-Johnson damping                          
-------------------------------------------------------------------------------
The B3LYP functional is recognized
Active option DFTDOPT                   ...         4   

molecular C6(AA) [au] = 1151.787087 


            DFT-D V3
 parameters
 s6 scaling factor         :     1.0000 
 a1 scaling factor         :     0.3981 
 s8 scaling factor         :     1.9889 
 a2 scaling factor         :     4.4211 
 ad hoc parameters k1-k3   :    16.0000     1.3333    -4.0000 

 Edisp/kcal,au: -7.655452590688  -0.012199738953 
 E6   /kcal   :  -3.749976200 
 E8   /kcal   :  -3.905476391 
 % E8         :  51.015617233 

-------------------------   ----------------
Dispersion correction           -0.012199739
-------------------------   ----------------


-------------------------   --------------------
FINAL SINGLE POINT ENERGY      -343.589091347005
-------------------------   --------------------

--------------------------------------------------------------------------
By default, for Open MPI 4.0 and later, infiniband ports on a device
are not used by default.  The intent is to use UCX for these devices.
You can override this policy by setting the btl_openib_allow_ib MCA parameter
to true.

  Local host:              psid06
  Local adapter:           mlx4_0
  Local port:              1

--------------------------------------------------------------------------
--------------------------------------------------------------------------
WARNING: There was an error initializing an OpenFabrics device.

  Local host:   psid06
  Local device: mlx4_0
--------------------------------------------------------------------------


           ************************************************************
           *        Program running with 32 parallel MPI-processes    *
           *              working on a common directory               *
           ************************************************************
------------------------------------------------------------------------------
                         ORCA SCF GRADIENT CALCULATION
------------------------------------------------------------------------------

Nuc. rep. gradient        (SHARK) ... done (  0.0 sec)
HCore & Overlap gradient  (SHARK) ... done (  0.0 sec)
Split-RIJ-J gradient      (SHARK) ... done (  0.2 sec)
COSX-gradient                     ... done (  1.0 sec)
XC gradient                       ... done (  0.2 sec)
Dispersion correction             ... done (  0.0 sec)

-------------------
DISPERSION GRADIENT
-------------------

   1   O   :   -0.000198878   -0.000103733    0.000000078
   2   O   :    0.000198861   -0.000103720    0.000000076
   3   O   :    0.000000059    0.000282785    0.000000161
   4   C   :    0.000000022    0.000000637    0.000000246
   5   C   :   -0.000302508   -0.000027996   -0.000000072
   6   C   :    0.000302470   -0.000027984   -0.000000068
   7   H   :   -0.000177266    0.000024501    0.000072067
   8   H   :   -0.000171065   -0.000058981   -0.000000060
   9   H   :   -0.000177237    0.000024490   -0.000072218
  10   H   :    0.000171065   -0.000058988   -0.000000068
  11   H   :    0.000177253    0.000024505    0.000072064
  12   H   :    0.000177224    0.000024483   -0.000072207

Difference to translation invariance:
           :    0.0000000000    0.0000000000   -0.0000000000

Difference to rotation invariance:
           :   -0.0000000000    0.0000000000    0.0000000000

Norm of the Dispersion gradient    ...    0.0007612591
RMS gradient                       ...    0.0001268765
MAX gradient                       ...    0.0003025084

------------------
CARTESIAN GRADIENT
------------------

   1   O   :   -0.019102889   -0.006526439   -0.000026726
   2   O   :    0.019138520   -0.006499813   -0.000027077
   3   O   :    0.000021334    0.035139387   -0.000047042
   4   C   :   -0.000011189   -0.011756007    0.000135295
   5   C   :    0.004690582   -0.005447744   -0.000023635
   6   C   :   -0.004803554   -0.005351160   -0.000079106
   7   H   :   -0.000825778   -0.000833128    0.003994235
   8   H   :   -0.007147062    0.001932894    0.000002074
   9   H   :   -0.000827166   -0.000826762   -0.003990276
  10   H   :    0.007205750    0.001872536   -0.000010585
  11   H   :    0.000829367   -0.000825743    0.003995715
  12   H   :    0.000832085   -0.000878022   -0.003922872

Difference to translation invariance:
           :   -0.0000000000   -0.0000000000   -0.0000000000

Difference to rotation invariance:
           :    0.0000008133    0.0000002148   -0.0000003267

Norm of the Cartesian gradient     ...    0.0497141517
RMS gradient                       ...    0.0082856920
MAX gradient                       ...    0.0351393867

-------
TIMINGS
-------

Total SCF gradient time     ....        1.476 sec

Densities                   ....       0.001 sec  (  0.0%)
One electron gradient       ....       0.017 sec  (  1.2%)
RI-J Coulomb gradient       ....       0.198 sec  ( 13.4%)
COSX gradient               ....       1.043 sec  ( 70.7%)
XC gradient                 ....       0.167 sec  ( 11.3%)

Maximum memory used throughout the entire SCFGRAD-calculation: 31.1 MB
[psid06:188681] 31 more processes have sent help message help-mpi-btl-openib.txt / ib port not selected
[psid06:188681] Set MCA parameter "orte_base_help_aggregate" to 0 to see all help / error messages
[psid06:188681] 31 more processes have sent help message help-mpi-btl-openib.txt / error in device init
------------------------------------------------------------------------------
                         ORCA GEOMETRY RELAXATION STEP
------------------------------------------------------------------------------

Reading the OPT-File                    .... done
Getting information on internals        .... done
Copying old internal coords+grads       .... done
Making the new internal coordinates     .... (2022 redundants) done
Validating the new internal coordinates .... (2022 redundants) done
Calculating the B-matrix                .... done
Calculating the G,G- and P matrices     .... done
Transforming gradient to internals      .... done
Projecting the internal gradient        .... done
Number of atoms                         ....  12
Number of internal coordinates          ....  38
Current Energy                          ....  -343.589091347 Eh
Current gradient norm                   ....     0.049714152 Eh/bohr
Maximum allowed component of the step   ....  0.300
Current trust radius                    ....  0.300
Evaluating the initial hessian          ....  (Almloef) done
Projecting the Hessian                  .... done
Forming the augmented Hessian           .... done
Diagonalizing the augmented Hessian     .... done
Last element of RFO vector              ....  0.995956549
Lowest eigenvalues of augmented Hessian:
 -0.004528028  0.018226425  0.018238462  0.028118084  0.028118088
Length of the computed step             ....  0.090200978
The final length of the internal step   ....  0.090200978
Converting the step to Cartesian space:
 Initial RMS(Int)=    0.0146325308
Transforming coordinates:
 Iter   0:  RMS(Cart)=    0.0372463690 RMS(Int)=    1.4411228145
done
Storing new coordinates                 .... done

                                .--------------------.
          ----------------------|Geometry convergence|-------------------------
          Item                value                   Tolerance       Converged
          ---------------------------------------------------------------------
          RMS gradient        0.0088513424            0.0000300000      NO
          MAX gradient        0.0351393988            0.0001000000      NO
          RMS step            0.0146325308            0.0006000000      NO
          MAX step            0.0411394239            0.0010000000      NO
          ........................................................
          Max(Bonds)      0.0218      Max(Angles)    1.55
          Max(Dihed)        0.17      Max(Improp)    0.00
          ---------------------------------------------------------------------

The optimization has not yet converged - more geometry cycles are needed


    ---------------------------------------------------------------------------
                         Redundant Internal Coordinates
                            (Angstroem and degrees)

        Definition                    Value    dE/dq     Step     New-Value
    ----------------------------------------------------------------------------
     1. B(C   3,O   1)                1.3625  0.025638 -0.0218    1.3407   
     2. B(C   3,O   2)                1.2236  0.035139 -0.0180    1.2056   
     3. B(C   3,O   0)                1.3625  0.025657 -0.0218    1.3407   
     4. B(C   4,O   0)                1.4314  0.001151 -0.0013    1.4301   
     5. B(C   5,O   1)                1.4313  0.001106 -0.0012    1.4301   
     6. B(H   6,C   4)                1.0942  0.002892 -0.0043    1.0900   
     7. B(H   7,C   4)                1.0932  0.003859 -0.0057    1.0875   
     8. B(H   8,C   4)                1.0942  0.002893 -0.0043    1.0900   
     9. B(H   9,C   5)                1.0933  0.003943 -0.0058    1.0875   
    10. B(H  10,C   5)                1.0943  0.002898 -0.0043    1.0900   
    11. B(H  11,C   5)                1.0941  0.002810 -0.0041    1.0900   
    12. A(C   3,O   0,C   4)          115.58  0.006775   -0.94    114.64   
    13. A(C   3,O   1,C   5)          115.57  0.006757   -0.94    114.64   
    14. A(O   1,C   3,O   2)          125.99 -0.001354    0.17    126.17   
    15. A(O   0,C   3,O   1)          108.00  0.002666   -0.34    107.66   
    16. A(O   0,C   3,O   2)          126.00 -0.001312    0.17    126.17   
    17. A(O   0,C   4,H   7)          108.12  0.009182   -1.55    106.57   
    18. A(O   0,C   4,H   6)          110.24 -0.001949    0.30    110.54   
    19. A(H   6,C   4,H   8)          110.72  0.002608   -0.58    110.14   
    20. A(O   0,C   4,H   8)          110.25 -0.001929    0.29    110.54   
    21. A(H   7,C   4,H   8)          108.73 -0.003904    0.76    109.49   
    22. A(H   6,C   4,H   7)          108.72 -0.003910    0.76    109.48   
    23. A(H   9,C   5,H  10)          108.72 -0.003905    0.76    109.48   
    24. A(O   1,C   5,H  10)          110.25 -0.001939    0.30    110.54   
    25. A(O   1,C   5,H  11)          110.25 -0.001918    0.29    110.54   
    26. A(O   1,C   5,H   9)          108.12  0.009172   -1.55    106.57   
    27. A(H  10,C   5,H  11)          110.71  0.002604   -0.58    110.14   
    28. A(H   9,C   5,H  11)          108.72 -0.003918    0.76    109.48   
    29. D(O   2,C   3,O   1,C   5)     -0.00  0.000035   -0.06     -0.07   
    30. D(O   0,C   3,O   1,C   5)    179.95 -0.000058    0.10    180.06   
    31. D(O   1,C   3,O   0,C   4)   -179.95  0.000058   -0.10   -180.06   
    32. D(O   2,C   3,O   0,C   4)      0.00 -0.000036    0.06      0.07   
    33. D(H   7,C   4,O   0,C   3)    180.00  0.000007   -0.00    180.00   
    34. D(H   8,C   4,O   0,C   3)     61.26  0.000336   -0.16     61.10   
    35. D(H   6,C   4,O   0,C   3)    -61.28 -0.000342    0.16    -61.11   
    36. D(H  11,C   5,O   1,C   3)    -61.27 -0.000344    0.17    -61.10   
    37. D(H  10,C   5,O   1,C   3)     61.28  0.000343   -0.16     61.11   
    38. D(H   9,C   5,O   1,C   3)   -179.99  0.000001   -0.00   -179.99   
    ----------------------------------------------------------------------------

Geometry step timings:
Preparation and reading OPT file:      0.000 s ( 9.300 %)
Internal coordinates            :      0.000 s ( 0.440 %)
B/P matrices and projection     :      0.000 s ( 7.460 %)
Hessian update/contruction      :      0.003 s (54.840 %)
Making the step                 :      0.000 s ( 5.220 %)
Converting the step to Cartesian:      0.000 s ( 1.200 %)
Storing new data                :      0.000 s ( 8.700 %)
Checking convergence            :      0.000 s ( 0.080 %)
Final printing                  :      0.001 s (12.560 %)
Total time                      :      0.005 s
--------------------------------------------------------------------------
By default, for Open MPI 4.0 and later, infiniband ports on a device
are not used by default.  The intent is to use UCX for these devices.
You can override this policy by setting the btl_openib_allow_ib MCA parameter
to true.

  Local host:              psid06
  Local adapter:           mlx4_0
  Local port:              1

--------------------------------------------------------------------------
--------------------------------------------------------------------------
WARNING: There was an error initializing an OpenFabrics device.

  Local host:   psid06
  Local device: mlx4_0
--------------------------------------------------------------------------
[psid06:188788] 31 more processes have sent help message help-mpi-btl-openib.txt / ib port not selected
[psid06:188788] Set MCA parameter "orte_base_help_aggregate" to 0 to see all help / error messages
[psid06:188788] 31 more processes have sent help message help-mpi-btl-openib.txt / error in device init

Time for energy+gradient        :     13.438 s
Time for complete geometry iter :     14.629 s

         *************************************************************
         *                GEOMETRY OPTIMIZATION CYCLE   2            *
         *************************************************************
---------------------------------
CARTESIAN COORDINATES (ANGSTROEM)
---------------------------------
  O     -1.082344   -0.705509   -0.000817
  O      1.082329   -0.705516   -0.000817
  O      0.000028    1.291378   -0.000678
  C     -0.000015    0.085732   -0.001575
  C     -2.330816   -0.007934   -0.000226
  C      2.330773   -0.007972   -0.000221
  H     -2.423660    0.609218    0.893398
  H     -3.110054   -0.766509    0.000273
  H     -2.424579    0.609086   -0.893841
  H      3.110011   -0.766570    0.000231
  H      2.423694    0.609166    0.893404
  H      2.424632    0.609031   -0.893832

----------------------------
CARTESIAN COORDINATES (A.U.)
----------------------------
  NO LB      ZA    FRAG     MASS         X           Y           Z
   0 O     8.0000    0    15.999   -2.045334   -1.333218   -0.001543
   1 O     8.0000    0    15.999    2.045305   -1.333232   -0.001543
   2 O     8.0000    0    15.999    0.000053    2.440351   -0.001281
   3 C     6.0000    0    12.011   -0.000029    0.162009   -0.002976
   4 C     6.0000    0    12.011   -4.404603   -0.014992   -0.000427
   5 C     6.0000    0    12.011    4.404523   -0.015066   -0.000419
   6 H     1.0000    0     1.008   -4.580053    1.151254    1.688278
   7 H     1.0000    0     1.008   -5.877150   -1.448493    0.000516
   8 H     1.0000    0     1.008   -4.581790    1.151005   -1.689114
   9 H     1.0000    0     1.008    5.877070   -1.448607    0.000436
  10 H     1.0000    0     1.008    4.580119    1.151156    1.688289
  11 H     1.0000    0     1.008    4.581890    1.150902   -1.689097

--------------------------------
INTERNAL COORDINATES (ANGSTROEM)
--------------------------------
 O      0   0   0     0.000000000000     0.00000000     0.00000000
 O      1   0   0     2.164672756857     0.00000000     0.00000000
 O      2   1   0     2.271334927129    61.54246356     0.00000000
 C      3   2   1     1.205647054240    28.45940769   359.91890607
 C      1   2   3     1.430137490024   150.80620147   359.95546127
 C      2   1   3     1.430098019149   150.80637714     0.04489474
 H      5   1   2     1.089981480697   110.54077040   298.95465065
 H      5   1   2     1.087497050512   106.57580850   180.06275235
 H      5   1   2     1.089977677375   110.54084340    61.16606574
 H      6   2   1     1.087512029506   106.57557650   179.93956666
 H      6   2   1     1.089981868867   110.54408499    61.04728461
 H      6   2   1     1.089973439784   110.54475922   298.83092391

---------------------------
INTERNAL COORDINATES (A.U.)
---------------------------
 O      0   0   0     0.000000000000     0.00000000     0.00000000
 O      1   0   0     4.090638680020     0.00000000     0.00000000
 O      2   1   0     4.292200970683    61.54246356     0.00000000
 C      3   2   1     2.278342746683    28.45940769   359.91890607
 C      1   2   3     2.702568190000   150.80620147   359.95546127
 C      2   1   3     2.702493600855   150.80637714     0.04489474
 H      5   1   2     2.059766489563   110.54077040   298.95465065
 H      5   1   2     2.055071596914   106.57580850   180.06275235
 H      5   1   2     2.059759302326   110.54084340    61.16606574
 H      6   2   1     2.055099903111   106.57557650   179.93956666
 H      6   2   1     2.059767223099   110.54408499    61.04728461
 H      6   2   1     2.059751294440   110.54475922   298.83092391

--------------------------------------------------------------------------
By default, for Open MPI 4.0 and later, infiniband ports on a device
are not used by default.  The intent is to use UCX for these devices.
You can override this policy by setting the btl_openib_allow_ib MCA parameter
to true.

  Local host:              psid06
  Local adapter:           mlx4_0
  Local port:              1

--------------------------------------------------------------------------
--------------------------------------------------------------------------
WARNING: There was an error initializing an OpenFabrics device.

  Local host:   psid06
  Local device: mlx4_0
--------------------------------------------------------------------------


           ************************************************************
           *        Program running with 32 parallel MPI-processes    *
           *              working on a common directory               *
           ************************************************************
------------------------------------------------------------------------------
                   ___                                                        
                  /   \      - P O W E R E D   B Y -                         
                 /     \                                                     
                 |  |  |   _    _      __       _____    __    __             
                 |  |  |  | |  | |    /  \     |  _  \  |  |  /  |          
                  \  \/   | |  | |   /    \    | | | |  |  | /  /          
                 / \  \   | |__| |  /  /\  \   | |_| |  |  |/  /          
                |  |  |   |  __  | /  /__\  \  |    /   |      \           
[...]
LOEWDIN REDUCED ORBITAL CHARGES
-------------------------------
  0 O s       :     3.257751  s :     3.257751
      pz      :     1.591469  p :     4.387181
      px      :     1.248946
      py      :     1.546765
      dz2     :     0.011324  d :     0.107609
      dxz     :     0.018265
      dyz     :     0.007430
      dx2y2   :     0.026747
      dxy     :     0.043842
      f0      :     0.000638  f :     0.006996
      f+1     :     0.000927
      f-1     :     0.000330
      f+2     :     0.000174
      f-2     :     0.001059
      f+3     :     0.002267
      f-3     :     0.001601

  1 O s       :     3.257751  s :     3.257751
      pz      :     1.591470  p :     4.387181
      px      :     1.248946
      py      :     1.546765
      dz2     :     0.011324  d :     0.107609
      dxz     :     0.018265
      dyz     :     0.007430
      dx2y2   :     0.026747
      dxy     :     0.043842
      f0      :     0.000638  f :     0.006996
      f+1     :     0.000927
      f-1     :     0.000330
      f+2     :     0.000174
      f-2     :     0.001059
      f+3     :     0.002267
      f-3     :     0.001601

  2 O s       :     3.399089  s :     3.399089
      pz      :     1.369432  p :     4.445748
      px      :     1.595741
      py      :     1.480575
      dz2     :     0.008626  d :     0.067365
      dxz     :     0.000150
      dyz     :     0.015829
      dx2y2   :     0.027006
      dxy     :     0.015754
      f0      :     0.000519  f :     0.006519
      f+1     :     0.000099
      f-1     :     0.001063
      f+2     :     0.000966
      f-2     :     0.000074
      f+3     :     0.001762
      f-3     :     0.002036

  3 C s       :     2.728806  s :     2.728806
      pz      :     0.781149  p :     2.618920
      px      :     0.850173
      py      :     0.987599
      dz2     :     0.076924  d :     1.097427
      dxz     :     0.130426
      dyz     :     0.212597
      dx2y2   :     0.264379
      dxy     :     0.413099
      f0      :     0.011037  f :     0.198990
      f+1     :     0.010585
      f-1     :     0.014062
      f+2     :     0.022610
      f-2     :     0.027718
      f+3     :     0.080535
      f-3     :     0.032444

  4 C s       :     2.865462  s :     2.865462
      pz      :     1.116866  p :     3.012660
      px      :     0.848867
      py      :     1.046926
      dz2     :     0.047957  d :     0.362620
      dxz     :     0.058687
      dyz     :     0.078028
      dx2y2   :     0.059252
      dxy     :     0.118696
      f0      :     0.005424  f :     0.053026
      f+1     :     0.006564
      f-1     :     0.004746
      f+2     :     0.006522
      f-2     :     0.005252
      f+3     :     0.013022
      f-3     :     0.011495

  5 C s       :     2.865462  s :     2.865462
      pz      :     1.116866  p :     3.012660
      px      :     0.848861
      py      :     1.046933
      dz2     :     0.047957  d :     0.362619
      dxz     :     0.058689
      dyz     :     0.078026
      dx2y2   :     0.059251
      dxy     :     0.118696
      f0      :     0.005424  f :     0.053026
      f+1     :     0.006564
      f-1     :     0.004746
      f+2     :     0.006523
      f-2     :     0.005252
      f+3     :     0.013022
      f-3     :     0.011495

  6 H s       :     0.827006  s :     0.827006
      pz      :     0.030758  p :     0.061850
      px      :     0.009409
      py      :     0.021684

  7 H s       :     0.826995  s :     0.826995
      pz      :     0.013760  p :     0.060557
      px      :     0.021634
      py      :     0.025164

  8 H s       :     0.827004  s :     0.827004
      pz      :     0.030761  p :     0.061851
      px      :     0.009409
      py      :     0.021681

  9 H s       :     0.826995  s :     0.826995
      pz      :     0.013760  p :     0.060557
      px      :     0.021633
      py      :     0.025164

 10 H s       :     0.827005  s :     0.827005
      pz      :     0.030757  p :     0.061850
      px      :     0.009409
      py      :     0.021685

 11 H s       :     0.827005  s :     0.827005
      pz      :     0.030762  p :     0.061851
      px      :     0.009409
      py      :     0.021680



                      *****************************
                      * MAYER POPULATION ANALYSIS *
                      *****************************

  NA   - Mulliken gross atomic population
  ZA   - Total nuclear charge
  QA   - Mulliken gross atomic charge
  VA   - Mayer's total valence
  BVA  - Mayer's bonded valence
  FA   - Mayer's free valence

  ATOM       NA         ZA         QA         VA         BVA        FA
  0 O      8.2640     8.0000    -0.2640     2.1057     2.1057    -0.0000
  1 O      8.2640     8.0000    -0.2640     2.1057     2.1057    -0.0000
  2 O      8.3615     8.0000    -0.3615     2.1230     2.1230    -0.0000
  3 C      5.5554     6.0000     0.4446     4.4026     4.4026    -0.0000
  4 C      6.1547     6.0000    -0.1547     3.8544     3.8544    -0.0000
  5 C      6.1547     6.0000    -0.1547     3.8544     3.8544    -0.0000
  6 H      0.8747     1.0000     0.1253     0.9683     0.9683    -0.0000
  7 H      0.8733     1.0000     0.1267     0.9612     0.9612    -0.0000
  8 H      0.8747     1.0000     0.1253     0.9683     0.9683    -0.0000
  9 H      0.8733     1.0000     0.1267     0.9612     0.9612    -0.0000
 10 H      0.8747     1.0000     0.1253     0.9683     0.9683     0.0000
 11 H      0.8747     1.0000     0.1253     0.9683     0.9683    -0.0000

  Mayer bond orders larger than 0.100000
B(  0-O ,  3-C ) :   1.2078 B(  0-O ,  4-C ) :   0.8935 B(  1-O ,  3-C ) :   1.2078 
B(  1-O ,  5-C ) :   0.8935 B(  2-O ,  3-C ) :   1.9535 B(  4-C ,  6-H ) :   0.9742 
B(  4-C ,  7-H ) :   0.9656 B(  4-C ,  8-H ) :   0.9742 B(  5-C ,  9-H ) :   0.9656 
B(  5-C , 10-H ) :   0.9742 B(  5-C , 11-H ) :   0.9742 

-------
TIMINGS
-------

Total SCF time: 0 days 0 hours 0 min 2 sec 

Total time                  ....       2.897 sec
Sum of individual times     ....       2.752 sec  ( 95.0%)

SCF preparation             ....       0.918 sec  ( 31.7%)
Fock matrix formation       ....       1.379 sec  ( 47.6%)
  Startup                   ....       0.072 sec  (  5.2% of F)
  Split-RI-J                ....       0.126 sec  (  9.1% of F)
  Chain of spheres X        ....       0.830 sec  ( 60.2% of F)
  XC integration            ....       0.243 sec  ( 17.6% of F)
    XC Preparation          ....       0.000 sec  (  0.0% of XC)
    Basis function eval.    ....       0.022 sec  (  8.9% of XC)
    Density eval.           ....       0.014 sec  (  5.9% of XC)
    XC-Functional eval.     ....       0.005 sec  (  2.1% of XC)
    XC-Potential eval.      ....       0.025 sec  ( 10.3% of XC)
Diagonalization             ....       0.000 sec  (  0.0%)
Density matrix formation    ....       0.104 sec  (  3.6%)
Total Energy calculation    ....       0.077 sec  (  2.7%)
Population analysis         ....       0.055 sec  (  1.9%)
Orbital Transformation      ....       0.039 sec  (  1.3%)
Orbital Orthonormalization  ....       0.000 sec  (  0.0%)
DIIS solution               ....       0.041 sec  (  1.4%)
SOSCF solution              ....       0.140 sec  (  4.8%)
Finished LeanSCF after   3.0 sec

Maximum memory used throughout the entire LEANSCF-calculation: 20.1 MB
[psid06:192290] 31 more processes have sent help message help-mpi-btl-openib.txt / ib port not selected
[psid06:192290] Set MCA parameter "orte_base_help_aggregate" to 0 to see all help / error messages
[psid06:192290] 31 more processes have sent help message help-mpi-btl-openib.txt / error in device init


-------------------------------------------------------------------------------
                          DFT DISPERSION CORRECTION                            
                                                                               
                              DFTD3 V3.1  Rev 1                                
                          USING Becke-Johnson damping                          
-------------------------------------------------------------------------------
The B3LYP functional is recognized
Active option DFTDOPT                   ...         4   

molecular C6(AA) [au] = 1150.715821 


            DFT-D V3
 parameters
 s6 scaling factor         :     1.0000 
 a1 scaling factor         :     0.3981 
 s8 scaling factor         :     1.9889 
 a2 scaling factor         :     4.4211 
 ad hoc parameters k1-k3   :    16.0000     1.3333    -4.0000 

 Edisp/kcal,au: -7.741205087174  -0.012336394240 
 E6   /kcal   :  -3.792774276 
 E8   /kcal   :  -3.948430812 
 % E8         :  51.005376645 

-------------------------   ----------------
Dispersion correction           -0.012336394
-------------------------   ----------------


-------------------------   --------------------
FINAL SINGLE POINT ENERGY      -343.591992064123
-------------------------   --------------------

                                *** OPTIMIZATION RUN DONE ***

--------------------------------------------------------------------------
By default, for Open MPI 4.0 and later, infiniband ports on a device
are not used by default.  The intent is to use UCX for these devices.
You can override this policy by setting the btl_openib_allow_ib MCA parameter
to true.

  Local host:              psid06
  Local adapter:           mlx4_0
  Local port:              1

--------------------------------------------------------------------------
--------------------------------------------------------------------------
WARNING: There was an error initializing an OpenFabrics device.

  Local host:   psid06
  Local device: mlx4_0
--------------------------------------------------------------------------


           ************************************************************
           *        Program running with 32 parallel MPI-processes    *
           *              working on a common directory               *
           ************************************************************

------------------------------------------------------------------------------
                              ORCA PROPERTY CALCULATIONS
------------------------------------------------------------------------------

GBWName                                 ... DMC.gbw
Number of atoms                         ...     12
Number of basis functions               ...    222
Max core memory                         ...   5000 MB

Electric properties:
Dipole moment                           ... YES
Quadrupole moment                       ...  NO
Static polarizability (Dipole/Dipole)   ...  NO
Static polarizability (Dipole/Quad.)    ...  NO
Static polarizability (Quad./Quad.)     ...  NO
Static polarizability (Velocity)        ...  NO

Atomic electric properties:
Dipole moment                           ...  NO
Quadrupole moment                       ...  NO
Static polarizability                   ...  NO

Choice of electric origin               ... Center of mass
Position of electric origin             ...    -0.000003    -0.004470    -0.000729

General magnetic properties:
Magnetizability                         ...  NO

EPR properties:
g-Tensor (aka g-matrix)                 ...  NO
Zero-Field splitting spin-orbit         ...  NO
Zero-field splitting spin-spin          ...  NO
Hyperfine couplings                     ...  NO (   0 nuclei)
Quadrupole couplings                    ...  NO (   0 nuclei)
Contact density                         ...  NO (   0 nuclei)

NMR properties:
Chemical shifts                         ...  NO (   0 nuclei)
Spin-rotation constants                 ...  NO (   0 nuclei)
Spin-spin couplings                     ...  NO (   0 nuclei,    0 pairs)

Choice of magnetic origin               ... GIAO
Position of magnetic origin             ...     0.000000     0.000000     0.000000

Properties with geometric perturbations:
SCF Hessian                             ...  NO
IR spectrum                             ...  NO
VCD spectrum                            ...  NO
X-ray spectroscopy properties:
SCF XES/XAS/RIXS spectra                ...  NO


-------------
DIPOLE MOMENT
-------------

Method             : SCF
Type of density    : Electron Density
Multiplicity       :   1
Irrep              :   0
Energy             :  -343.5796556698826407 Eh
Relativity type    : 
Basis              : AO
                                X                 Y                 Z
Electronic contribution:     -0.000016426      -1.033886728       0.000080639
Nuclear contribution   :      0.000017331       0.862637578      -0.000070238
                        -----------------------------------------
Total Dipole Moment    :      0.000000906      -0.171249150       0.000010401
                        -----------------------------------------
Magnitude (a.u.)       :      0.171249150
Magnitude (Debye)      :      0.435280747



--------------------
Rotational spectrum 
--------------------
 
Rotational constants in cm-1:             0.348750             0.078510             0.065672 
Rotational constants in MHz :         10455.247992          2353.669794          1968.794911 

Dipole components along the rotational axes: 
x,y,z [a.u.] :     0.000003    -0.171249    -0.000010 
x,y,z [Debye]:     0.000007    -0.435281    -0.000026 

 

Dipole moment calculation done in   0.0 sec 

Maximum memory used throughout the entire PROP-calculation: 10.2 MB
[psid06:192397] 31 more processes have sent help message help-mpi-btl-openib.txt / ib port not selected
[psid06:192397] Set MCA parameter "orte_base_help_aggregate" to 0 to see all help / error messages
[psid06:192397] 31 more processes have sent help message help-mpi-btl-openib.txt / error in device init
--------------------------------------------------------------------------
By default, for Open MPI 4.0 and later, infiniband ports on a device
are not used by default.  The intent is to use UCX for these devices.
You can override this policy by setting the btl_openib_allow_ib MCA parameter
to true.

  Local host:              psid06
  Local adapter:           mlx4_0
  Local port:              1

--------------------------------------------------------------------------
--------------------------------------------------------------------------
WARNING: There was an error initializing an OpenFabrics device.

  Local host:   psid06
  Local device: mlx4_0
--------------------------------------------------------------------------
[psid06:192501] 31 more processes have sent help message help-mpi-btl-openib.txt / ib port not selected
[psid06:192501] Set MCA parameter "orte_base_help_aggregate" to 0 to see all help / error messages
[psid06:192501] 31 more processes have sent help message help-mpi-btl-openib.txt / error in device init

--------------------------------
SUGGESTED CITATIONS FOR THIS RUN
--------------------------------

Below you find a list of papers that are relevant to this ORCA run
We neither can nor want to force you to cite these papers, but we appreciate if you do
You receive ORCA, which is the product of decades of hard work by many enthusiastic individuals, for free
The only thing we kindly ask in return is that you cite our papers,
We deeply appreciate it, if you show your appreciation for ORCA by not just citing the generic ORCA reference.

Please note that relegating all ORCA citations to the supporting information does *not* help us.
SI sections are not indexed - citations you put there will not count into any citation statistics
But we need these citations in order to attract the funding resources that allow us to do what we are doing

Therefore, if you are a happy ORCA user, please consider citing a few of the papers listed below in the main body of your paper

In addition to the list printed below, the program has created the file DMC.bibtex that contains the list in bibtex format
You can import this file easily into all common literature databanks and citation aid programs


List of essential papers. We consider these as the minimum necessary citations

  1. Neese,F.
     Software update: the ORCA program system, version 5.0
     WIRES Comput. Molec. Sci., 2022 12(1)e1606
     doi.org/10.1002/wcms.1606

List of papers to cite with high priority. The work reported in these papers was absolutely
necessary for this run to complete.
Our perspective: the developers of density functionals and basis sets usually get cited in chemistry papers
Good! But without the algorithms to do something with them, the functionals or basis sets would not do anything.
Hence, in our opinion, the algorithm design and method developments papers are equally worthy of getting cited

  1. Neese,F.
     An improvement of the resolution of the identity approximation for the formation of the Coulomb matrix
     J. Comp. Chem., 2003 24(14)1740-1747
     doi.org/10.1002/jcc.10318
  2. Neese,F.; Wennmohs,F.; Hansen,A.; Becker,U.
     Efficient, approximate and parallel Hartree-Fock and hybrid DFT calculations. A 'chain-of-spheres' algorithm for the Hartree-Fock exchange
     Chem. Phys., 2009 356(1-3)98-109
     doi.org/10.1016/j.chemphys.2008.10.036
  3. Helmich-Paris,B.; de Souza,B.; Neese,F.; Izsák,R.
     An improved chain of spheres for exchange algorithm
     J. Chem. Phys., 2021 155 104109
     doi.org/doi: 10.1063/5.0058766.
  4. Neese,F.
     The SHARK Integral Generation and Digestion System
     J. Comp. Chem., 2022  1-16
     doi.org/10.1002/jcc.26942
  5. Grimme,S.; Antony,J.; Ehrlich,S.; Krieg,H.
     A consistent and accurate ab initio parametrization of density functional dispersion correction (DFT-D) for the 94 elements H-Pu
     J. Chem. Phys., 2010 132 154104
     doi.org/10.1063/1.3382344
  6. Grimme,S.; Ehrlich,S.; Goerigk,L.
     Effect of the damping function in dispersion corrected density functional theory
     J. Comput. Chem., 2011 32(7)1456-1465
     doi.org/10.1002/jcc.21759

List of suggested additional citations. These are papers that are important in the 'surrounding' of 
of this run, or papers that preceded the highly important papers. If you like your results we are grateful for a citation.

  1. Izsak,R.; Neese,F.
     An overlap fitted chain of spheres exchange method
     J. Chem. Phys., 2011 135 144105
     doi.org/10.1063/1.3646921
  2. Izsak,R.; Hansen,A.; Neese,F.
     The resolution of identity and chain of spheres approximations for the LPNO-CCSD singles Fock term
     Molec. Phys., 2012 110 2413-2417
     doi.org/10.1080/00268976.2012.687466
  3. Neese,F.
     The ORCA program system
     WIRES Comput. Molec. Sci., 2012 2(1)73-78
     doi.org/10.1002/wcms.81
  4. Izsak,R.; Neese,F.; Klopper,W.
     Robust fitting techniques in the chain of spheres approximation to the Fock exchange: The role of the complementary space
     J. Chem. Phys., 2013 139 
     doi.org/10.1063/1.4819264
  5. Neese,F.
     Software update: the ORCA program system, version 4.0
     WIRES Comput. Molec. Sci., 2018 8(1)1-6
     doi.org/10.1002/wcms.1327
  6. Neese,F.; Wennmohs,F.; Becker,U.; Riplinger,C.
     The ORCA quantum chemistry program package
     J. Chem. Phys., 2020 152 Art. No. L224108
     doi.org/10.1063/5.0004608

List of optional additional citations

  1. Neese,F.
     Approximate second-order SCF convergence for spin unrestricted wavefunctions
     Chem. Phys. Lett., 2000 325(1-3)93-98
     doi.org/10.1016/s0009-2614(00)00662-x

Timings for individual modules:

Sum of individual times          ...       79.917 sec (=   1.332 min)
Startup calculation              ...       14.050 sec (=   0.234 min)  17.6 %
SCF iterations                   ...       48.292 sec (=   0.805 min)  60.4 %
Property calculations            ...        0.961 sec (=   0.016 min)   1.2 %
SCF Gradient evaluation          ...       16.564 sec (=   0.276 min)  20.7 %
Geometry relaxation              ...        0.050 sec (=   0.001 min)   0.1 %
                             ****ORCA TERMINATED NORMALLY****
TOTAL RUN TIME: 0 days 0 hours 1 minutes 31 seconds 100 msec
