
                                 *****************
                                 * O   R   C   A *
                                 *****************

                                            #,                                       
                                            ###                                      
                                            ####                                     
                                            #####                                    
                                            ######                                   
                                           ########,                                 
                                     ,,################,,,,,                         
                               ,,#################################,,                 
                          ,,##########################################,,             
                       ,#########################################, ''#####,          
                    ,#############################################,,   '####,        
                  ,##################################################,,,,####,       
                ,###########''''           ''''###############################       
              ,#####''   ,,,,##########,,,,          '''####'''          '####       
            ,##' ,,,,###########################,,,                        '##       
           ' ,,###''''                  '''############,,,                           
         ,,##''                                '''############,,,,        ,,,,,,###''
      ,#''                                            '''#######################'''  
     '                                                          ''''####''''         
             ,#######,   #######,   ,#######,      ##                                
            ,#'     '#,  ##    ##  ,#'     '#,    #''#        ,####,   ,####,        
            ##       ##  ##   ,#'  ##            #'  '#       #'       #'  '#        
            ##       ##  #######   ##           ,######,      #####,   #    #        
            '#,     ,#'  ##    ##  '#,     ,#' ,#      #,     #,   #   #,  ,#        
             '#######'   ##     ##  '#######'  #'      '#     '####' # '####'        



                #########################################################
                #                        -***-                          #
                #          Department of theory and spectroscopy        #
                #                                                       #
                #                      Frank Neese                      #
                #                                                       #
                #     Directorship, Architecture, Infrastructure        #
                #                    SHARK, DRIVERS                     #
                #        Core code/Algorithms in most modules           #
                #                                                       #
                #        Max Planck Institute fuer Kohlenforschung      #
                #                Kaiser Wilhelm Platz 1                 #
                #                 D-45470 Muelheim/Ruhr                 #
                #                      Germany                          #
                #                                                       #
                #                  All rights reserved                  #
                #                        -***-                          #
                #########################################################


                         Program Version 6.0.1  -  RELEASE   -


 With contributions from (in alphabetic order):
[Max-Planck-Institut fuer Kohlenforschung]                               
  Daniel Aravena         : Magnetic Suceptibility                        
  Michael Atanasov       : Ab Initio Ligand Field Theory (pilot matlab implementation)
  Alexander A. Auer      : GIAO ZORA, VPT2 properties, NMR spectrum      
  Ute Becker             : All parallelization in ORCA, NUMFREQ, NUMCALC 
  Giovanni Bistoni       : ED, misc. LED, open-shell LED, HFLD           
  Martin Brehm           : Molecular dynamics                            
  Dmytro Bykov           : pre 5.0 version of the SCF Hessian            
  Marcos Casanova-Páez   : Triplet and SCS-CIS(D). UHF-(DLPNO)-IP/EA/STEOM-CCSD. UHF-CVS-IP/STEOM-CCSD   
  Vijay G. Chilkuri      : MRCI spin determinant printing, contributions to CSF-ICE 
  Pauline Colinet        : FMM embedding                                 
  Dipayan Datta          : RHF DLPNO-CCSD density                        
  Achintya Kumar Dutta   : EOM-CC, STEOM-CC                              
  Nicolas Foglia         : Exact transition moments, OPA infrastructure, MCD improvements    
  Dmitry Ganyushin       : Spin-Orbit,Spin-Spin,Magnetic field MRCI      
  Miquel Garcia-Rates    : C-PCM and meta-GGA Hessian, CCSD/C-PCM, Gaussian charge scheme 
  Tiago L. C. Gouveia    : GS-ROHF, GS-ROCIS                             
  Yang Guo               : DLPNO-NEVPT2, F12-NEVPT2, CIM, IAO-localization        
  Andreas Hansen         : Spin unrestricted coupled pair/coupled cluster methods 
  Ingolf Harden          : AUTO-CI MPn and infrastructure                
  Benjamin Helmich-Paris : MC-RPA, TRAH-(SCF,CASSCF), AVAS, COSX integrals, SCF dyn. polar. 
  Lee Huntington         : MR-EOM, pCC                                   
  Robert Izsak           : Overlap fitted RIJCOSX, COSX-SCS-MP3, EOM     
  Riya Kayal             : Wick's Theorem for AUTO-CI, AUTO-CI UHF-CCSDT 
  Emily Kempfer          : AUTO-CI, RHF CISDT and CCSDT                  
  Christian Kollmar      : KDIIS, OOCD, Brueckner-CCSD(T), CCSD density, CASPT2, CASPT2-K, improved NEVPT2 
  Axel Koslowski         : Symmetry handling                             
  Simone Kossmann        : meta-GGA functionals, TD-DFT gradient, OOMP2, (MP2 Hessian; deprecated post 5.0) 
  Lucas Lang             : DCDCAS                                        
  Marvin Lechner         : AUTO-CI (C++ implementation), FIC-MRCC        
  Spencer Leger          : CASSCF response                               
  Dagmar Lenk            : GEPOL surface, SMD, ORCA-2-JSON               
  Dimitrios Liakos       : Extrapolation schemes; Compound Job, initial MDCI parallelization 
  Dimitrios Manganas     : Further ROCIS development; embedding schemes. LFT, Crystal Embedding 
  Dimitrios Pantazis     : SARC Basis sets                               
  Anastasios Papadopoulos: AUTO-CI, single reference methods and gradients 
  Taras Petrenko         : pre 6.0 DFT Hessian and TD-DFT gradient, (ASA, deprecated), ECA, 1-Electron XAS/XES, NRVS 
  Peter Pinski           : DLPNO-MP2, DLPNO-MP2 Gradient                 
  Christoph Reimann      : Effective Core Potentials                     
  Marius Retegan         : Local ZFS, SOC                                
  Christoph Riplinger    : Optimizer, TS searches, QM/MM, DLPNO-CCSD(T), (RO)-DLPNO pert. Triples 
  Michael Roemelt        : Original ROCIS implementation                 
  Masaaki Saitow         : Open-shell DLPNO-CCSD energy and density      
  Barbara Sandhoefer     : DKH picture change effects                    
  Kantharuban Sivalingam : CASSCF convergence/infrastructure, NEVPT2 and variants, FIC-MRCI 
  Bernardo de Souza      : ESD, SOC TD-DFT                               
  Georgi L. Stoychev     : AutoAux, RI-MP2 NMR, DLPNO-MP2 response, X2C  
  Van Anh Tran           : RI-MP2 g-tensors                              
  Willem Van den Heuvel  : Paramagnetic NMR                              
  Zikuan Wang            : NOTCH, Electric field optimization            
  Frank Wennmohs         : Technical directorship and infrastructure     
  Hang Xu                : AUTO-CI-Response properties                   
                                                                         
[FACCTs GmbH]                                                            
  Markus Bursch, Miquel Garcia-Rates, Christoph Riplinger, Bernardo de Souza, Georgi L. Stoychev 
                                                                 
  APM, Basis sets (HGBS, AHGBS, def-TZVP (Ac-Lr), def2-XVPD (La-Lu)), CI-OPT, improved COSX, DLPNO-Multilevel,           
  DOCKER, DRACO, updates on ESD, GOAT, IRC, LR-CPCM, MBIS, meta-GGA TD-DFT gradient, ML-optimized integration grids, 
  MM, NACMEs, nearIR, NEB, NEB-TS, NL-DFT gradient (VV10), 2- and 3-layer-ONIOM, interface openCOSMO-RS, QMMM,   
  Crystal-QMMM, SF, symmetry and pop. for TD-DFT, r2SCAN hybrids, SOLVATOR                                   
                                                                         
[Other institutions]                                                     
  V. Asgeirsson          : NEB                                           
  Christoph Bannwarth    : sTDA-DFT, sTD-DFT, PBEh-3c, B97-3c, D3        
  Sebastian Ehlert       : rSCAN, r2SCAN, r2SCAN-3c, D4, dhf basis sets  
  Marvin Friede          : D4 for Fr, Ra, Ac-Lr                          
  Lars Goerigk           : TD-DFT with DH, B97 family of functionals     
  Stefan Grimme          : VdW corrections, initial TS optimization, DFT functionals, gCP, sTDA/sTD-DF 
  Waldemar Hujo          : DFT-NL                                        
  H. Jonsson             : NEB                                           
  Holger Kruse           : gCP                                           
  Marcel Mueller         : wB97X-3c, vDZP basis set                      
  Hagen Neugebauer       : wr2SCAN                                       
  Tobias Risthaus        : range-separated hybrid DFT                    
  Lukas Wittmann         : regularized MP2, r2SCAN double-hybrids, wr2SCAN        
                                                                         
We gratefully acknowledge several colleagues who have allowed us to      
interface, adapt or use parts of their codes:                            
  Ed Valeev, F. Pavosevic, A. Kumar             : LibInt (2-el integral package), F12 methods 
  Garnet Chan, S. Sharma, J. Yang, R. Olivares  : DMRG                   
  Ulf Ekstrom                                   : XCFun DFT Library      
  Mihaly Kallay                                 : mrcc  (arbitrary order and MRCC methods)
  Frank Weinhold                                : gennbo (NPA and NBO analysis)           
  Simon Mueller                                 : openCOSMO-RS                            
  Christopher J. Cramer and Donald G. Truhlar   : smd solvation model                     
  S Lehtola, MJT Oliveira, MAL Marques          : LibXC Library                           
  Liviu Ungur et al                             : ANISO software                          


 Your calculation uses the libint2 library for the computation of 2-el integrals
 For citations please refer to: http://libint.valeyev.net

 Your ORCA version has been built with support for libXC version: 6.2.2
 For citations please refer to: https://libxc.gitlab.io

 This ORCA versions uses:
   CBLAS   interface :  Fast vector & matrix operations
   LAPACKE interface :  Fast linear algebra routines
   SCALAPACK package :  Parallel linear algebra routines
   Shared memory     :  Shared parallel matrices
   BLAS/LAPACK       :  OpenBLAS 0.3.27  USE64BITINT DYNAMIC_ARCH NO_AFFINITY SkylakeX SINGLE_THREADED
        Core in use  :  SkylakeX
   Copyright (c) 2011-2014, The OpenBLAS Project


NOTE: MaxCore=5000 MB was set to SCF,MP2,MDCI,CIPSI,MRCI and CIS
      => If you want to overwrite this, your respective input block should be placed after the MaxCore statement
Your calculation utilizes the atom-pairwise dispersion correction
with the Becke-Johnson damping scheme (D3BJ)


Warning: RI is on but no J-basis has been assigned. Assigning Def2/J (nothing to worry about!)
================================================================================

----- Orbital basis set information -----
Your calculation utilizes the basis: def2-TZVP
   F. Weigend and R. Ahlrichs, Phys. Chem. Chem. Phys. 7, 3297 (2005).

----- AuxJ basis set information -----
Your calculation utilizes the auxiliary basis: def2/J
   F. Weigend, Phys. Chem. Chem. Phys. 8, 1057 (2006).

================================================================================
                                        WARNINGS
                       Please study these warnings very carefully!
================================================================================


WARNING: Geometry Optimization
  ===> : Switching off AutoStart
         For restart on a previous wavefunction, please use MOREAD

================================================================================
                                       INPUT FILE
================================================================================
NAME = input.inp
|  1> ! Opt B3LYP def2-TZVP TightSCF TightOpt D3BJ RIJCOSX
|  2> 
|  3> %maxcore 5000
|  4> 
|  5> %pal
|  6> nprocs 18
|  7> end
|  8> 
|  9> * xyz 0 1
| 10>   Li         -3.05736949492775      2.40996761486557     -1.72723063184221
| 11>   F          -1.47517471065306      5.84938351487736     -0.63114568946232
| 12>   P          -2.38835571911126      4.85765885235954      0.18241539297365
| 13>   O          -2.48069853759363      3.60179477385979     -0.61956579678572
| 14>   O          -3.57681256875554      5.55570899182973      0.68974465074209
| 15>   F          -1.38259296895873      4.56586125220794      1.35734507437451
| 16> *
| 17> 
| 18> 
| 19>                          ****END OF INPUT****
================================================================================

                       *****************************
                       * Geometry Optimization Run *
                       *****************************

Geometry optimization settings:
Update method            Update   .... BFGS
Choice of coordinates    CoordSys .... (2022) Redundant Internals
Initial Hessian          InHess   .... Almloef's Model
Max. no of cycles        MaxIter  .... 50

Convergence Tolerances:
Energy Change            TolE     ....  1.0000e-06 Eh
Max. Gradient            TolMAXG  ....  1.0000e-04 Eh/bohr
RMS Gradient             TolRMSG  ....  3.0000e-05 Eh/bohr
Max. Displacement        TolMAXD  ....  1.0000e-03 bohr
RMS Displacement         TolRMSD  ....  6.0000e-04 bohr
Strict Convergence                .... False

------------------------------------------------------------------------------
                        ORCA OPTIMIZATION COORDINATE SETUP
------------------------------------------------------------------------------

The optimization will be done in redundant internal coordinates (2022)
Making redundant internal coordinates   ...  (2022 redundants) done
Evaluating the initial hessian          ...  (Almloef) done
Evaluating the coordinates              ...  done
Calculating the B-matrix                .... done
Calculating the G-matrix                .... done
Diagonalizing the G-matrix              .... done
The first mode is                       ....    3
The number of degrees of freedom        ....   12

    -----------------------------------------------------------------
                    Redundant Internal Coordinates


    -----------------------------------------------------------------
         Definition                    Initial Value    Approx d2E/dq
    -----------------------------------------------------------------
      1. B(P   2,F   1)                  1.5746         0.887108   
      2. B(O   3,P   2)                  1.4929         1.288610   
      3. B(O   3,Li  0)                  1.7262         0.789687   
      4. B(O   4,P   2)                  1.4687         1.408656   
      5. B(F   5,P   2)                  1.5739         0.889321   
      6. A(F   1,P   2,O   3)          106.7463         0.599466   
      7. A(F   1,P   2,O   4)          110.3906         0.609862   
      8. A(O   3,P   2,O   4)          122.3651         0.658397   
      9. A(F   1,P   2,F   5)           97.5779         0.556217   
     10. A(O   3,P   2,F   5)          106.5336         0.599754   
     11. A(O   4,P   2,F   5)          110.3250         0.610156   
     12. A(Li  0,O   3,P   2)          161.1071         0.599715   
     13. D(Li  0,O   3,P   2,O   4)     33.9024         0.028713   
     14. D(Li  0,O   3,P   2,F   5)    162.0069         0.028713   
     15. D(Li  0,O   3,P   2,F   1)    -94.5207         0.028713   
    -----------------------------------------------------------------

Number of atoms                         .... 6
Number of degrees of freedom            .... 15


         *************************************************************
         *                GEOMETRY OPTIMIZATION CYCLE   1            *
         *************************************************************
---------------------------------
CARTESIAN COORDINATES (ANGSTROEM)
---------------------------------
  Li    -3.057369    2.409968   -1.727231
  F     -1.475175    5.849384   -0.631146
  P     -2.388356    4.857659    0.182415
  O     -2.480699    3.601795   -0.619566
  O     -3.576813    5.555709    0.689745
  F     -1.382593    4.565861    1.357345

----------------------------
CARTESIAN COORDINATES (A.U.)
----------------------------
  NO LB      ZA    FRAG     MASS         X           Y           Z
   0 Li    3.0000    0     6.941   -5.777591    4.554179   -3.263993
   1 F     9.0000    0    18.998   -2.787676   11.053733   -1.192693
   2 P    15.0000    0    30.974   -4.513338    9.179645    0.344715
   3 O     8.0000    0    15.999   -4.687841    6.806406   -1.170810
   4 O     8.0000    0    15.999   -6.759196   10.498768    1.303428
   5 F     9.0000    0    18.998   -2.612722    8.628227    2.565010

--------------------------------
INTERNAL COORDINATES (ANGSTROEM)
--------------------------------
 Li     0   0   0     0.000000000000     0.00000000     0.00000000
 F      1   0   0     3.941360712946     0.00000000     0.00000000
 P      2   1   0     1.574578989860    50.30157141     0.00000000
 O      3   2   1     1.492948628895   106.74629776    10.58802921
 O      3   2   1     1.468702371643   110.39055106   235.49639850
 F      3   2   1     1.573900983317    97.57794853   120.45455099

---------------------------
INTERNAL COORDINATES (A.U.)
---------------------------
 Li     0   0   0     0.000000000000     0.00000000     0.00000000
 F      1   0   0     7.448092342464     0.00000000     0.00000000
 P      2   1   0     2.975523067062    50.30157141     0.00000000
 O      3   2   1     2.821264040625   106.74629776    10.58802921
 O      3   2   1     2.775445254645   110.39055106   235.49639850
 F      3   2   1     2.974241820378    97.57794853   120.45455099

---------------------
BASIS SET INFORMATION
---------------------
There are 4 groups of distinct atoms

 Group   1 Type Li  : 11s3p contracted to 5s3p pattern {62111/111}
 Group   2 Type F   : 11s6p2d1f contracted to 5s3p2d1f pattern {62111/411/11/1}
 Group   3 Type P   : 14s9p3d1f contracted to 5s5p2d1f pattern {73211/51111/21/1}
 Group   4 Type O   : 11s6p2d1f contracted to 5s3p2d1f pattern {62111/411/11/1}

Atom   0Li   basis set group =>   1
Atom   1F    basis set group =>   2
Atom   2P    basis set group =>   3
Atom   3O    basis set group =>   4
Atom   4O    basis set group =>   4
Atom   5F    basis set group =>   2
---------------------------------
AUXILIARY/J BASIS SET INFORMATION
---------------------------------
There are 4 groups of distinct atoms

 Group   1 Type Li  : 12s5p4d2f1g contracted to 6s4p3d1f1g pattern {711111/2111/211/2/1}
 Group   2 Type F   : 12s5p4d2f1g contracted to 6s4p3d1f1g pattern {711111/2111/211/2/1}
 Group   3 Type P   : 14s5p5d2f1g contracted to 8s4p3d1f1g pattern {71111111/2111/311/2/1}
 Group   4 Type O   : 12s5p4d2f1g contracted to 6s4p3d1f1g pattern {711111/2111/211/2/1}

Atom   0Li   basis set group =>   1
Atom   1F    basis set group =>   2
Atom   2P    basis set group =>   3
Atom   3O    basis set group =>   4
Atom   4O    basis set group =>   4
Atom   5F    basis set group =>   2
--------------------------------------------------------------------------
WARNING: There was an error initializing an OpenFabrics device.

  Local host:   ga00
  Local device: mlx5_0
--------------------------------------------------------------------------


           ************************************************************
           *        Program running with 18 parallel MPI-processes    *
           *              working on a common directory               *
           ************************************************************
------------------------------------------------------------------------------
                             ORCA STARTUP CALCULATIONS
                           -- RI-GTO INTEGRALS CHOSEN --
------------------------------------------------------------------------------
------------------------------------------------------------------------------
                   ___                                                        
                  /   \      - P O W E R E D   B Y -                         
                 /     \                                                     
                 |  |  |   _    _      __       _____    __    __             
                 |  |  |  | |  | |    /  \     |  _  \  |  |  /  |          
                  \  \/   | |  | |   /    \    | | | |  |  | /  /          
                 / \  \   | |__| |  /  /\  \   | |_| |  |  |/  /          
                |  |  |   |  __  | /  /__\  \  |    /   |      \           
                |  |  |   | |  | | |   __   |  |    \   |  |\   \          
                \     /   | |  | | |  |  |  |  | |\  \  |  | \   \       
                 \___/    |_|  |_| |__|  |__|  |_| \__\ |__|  \__/        
                                                                              
                      - O R C A' S   B I G   F R I E N D -                    
                                      &                                       
                       - I N T E G R A L  F E E D E R -                       
                                                                              
 v1 FN, 2020, v2 2021, v3 2022-2024                                           
------------------------------------------------------------------------------


----------------------
SHARK INTEGRAL PACKAGE
----------------------

Number of atoms                             ...      6
Number of basis functions                   ...    175
Number of shells                            ...     65
Maximum angular momentum                    ...      3
Integral batch strategy                     ... SHARK/LIBINT Hybrid
RI-J (if used) integral strategy            ... SPLIT-RIJ (Revised 2003 algorithm where possible)
Printlevel                                  ...      1
Contraction scheme used                     ... SEGMENTED contraction
Prescreening option                         ... SCHWARTZ
   Thresh                                   ... 2.500e-11
   Tcut                                     ... 2.500e-12
   Tpresel                                  ... 2.500e-12 
Coulomb Range Separation                    ... NOT USED
Exchange Range Separation                   ... NOT USED
Multipole approximations                    ... NOT USED
Finite Nucleus Model                        ... NOT USED
CABS basis                                  ... NOT available
Auxiliary Coulomb fitting basis             ... AVAILABLE
   # of basis functions in Aux-J            ...    296
   # of shells in Aux-J                     ...     92
   Maximum angular momentum in Aux-J        ...      4
Auxiliary J/K fitting basis                 ... NOT available
Auxiliary Correlation fitting basis         ... NOT available
Auxiliary 'external' fitting basis          ... NOT available

Checking pre-screening integrals            ... done (  0.0 sec) Dimension = 65
Check shell pair data                       ... done (  0.0 sec)
Shell pair information
Shell pair cut-off parameter TPreSel        ...   2.5e-12
Total number of shell pairs                 ...      2145
Shell pairs after pre-screening             ...      1951
Total number of primitive shell pairs       ...      7521
Primitive shell pairs kept                  ...      5057
          la=0 lb=0:    386 shell pairs
          la=1 lb=0:    548 shell pairs
          la=1 lb=1:    203 shell pairs
          la=2 lb=0:    266 shell pairs
          la=2 lb=1:    195 shell pairs
          la=2 lb=2:     55 shell pairs
          la=3 lb=0:    136 shell pairs
          la=3 lb=1:     97 shell pairs
          la=3 lb=2:     50 shell pairs
          la=3 lb=3:     15 shell pairs

Calculating one electron integrals          ... done (  0.0 sec)
Calculating RI/J V-Matrix + Cholesky decomp.... done (  0.0 sec)
Calculating Nuclear repulsion               ... done (  0.0 sec) ENN=    294.269681556740 Eh

Diagonalization of the overlap matrix:
Smallest eigenvalue                        ... 1.559e-03
Time for diagonalization                   ...    0.002 sec
Threshold for overlap eigenvalues          ... 1.000e-07
Number of eigenvalues below threshold      ... 0
Time for construction of square roots      ...    0.002 sec
Total time needed                          ...    0.005 sec

-------------------
DFT GRID GENERATION
-------------------

General Integration Accuracy     IntAcc      ... 4.388
Radial Grid Type                 RadialGrid  ... OptM3 with GC (2021)
Angular Grid (max. ang.)         AngularGrid ... 4 (Lebedev-302)
Angular grid pruning method      GridPruning ... 4 (adaptive)
Weight generation scheme         WeightScheme... mBecke (2022)
Basis function cutoff            BFCut       ... 1.0000e-11
Integration weight cutoff        WCut        ... 1.0000e-14
Partially contracted basis set               ... off
Rotationally invariant grid construction     ... off
Angular grids for H and He will be reduced by one unit

Total number of grid points                  ...    37813
Total number of batches                      ...      594
Average number of points per batch           ...       63
Average number of grid points per atom       ...     6302

--------------------
COSX GRID GENERATION
--------------------

GRIDX 1
-------
General Integration Accuracy     IntAcc      ... 3.816
Radial Grid Type                 RadialGrid  ... OptM3 with GC (2021)
Angular Grid (max. ang.)         AngularGrid ... 1 (Lebedev-50)
Angular grid pruning method      GridPruning ... 4 (adaptive)
Weight generation scheme         WeightScheme... mBecke (2022)
Basis function cutoff            BFCut       ... 1.0000e-11
Integration weight cutoff        WCut        ... 1.0000e-14
Partially contracted basis set               ... on
Rotationally invariant grid construction     ... off
Angular grids for H and He will be reduced by one unit

Total number of grid points                  ...     5796
Total number of batches                      ...       49
Average number of points per batch           ...      118
Average number of grid points per atom       ...      966
UseSFitting                                  ... on

GRIDX 2
-------
General Integration Accuracy     IntAcc      ... 4.020
Radial Grid Type                 RadialGrid  ... OptM3 with GC (2021)
Angular Grid (max. ang.)         AngularGrid ... 2 (Lebedev-110)
Angular grid pruning method      GridPruning ... 4 (adaptive)
Weight generation scheme         WeightScheme... mBecke (2022)
Basis function cutoff            BFCut       ... 1.0000e-11
Integration weight cutoff        WCut        ... 1.0000e-14
Partially contracted basis set               ... on
Rotationally invariant grid construction     ... off
Angular grids for H and He will be reduced by one unit

Total number of grid points                  ...    11251
Total number of batches                      ...       91
Average number of points per batch           ...      123
Average number of grid points per atom       ...     1875
UseSFitting                                  ... on

GRIDX 3
-------
General Integration Accuracy     IntAcc      ... 4.338
Radial Grid Type                 RadialGrid  ... OptM3 with GC (2021)
Angular Grid (max. ang.)         AngularGrid ... 3 (Lebedev-194)
Angular grid pruning method      GridPruning ... 4 (adaptive)
Weight generation scheme         WeightScheme... mBecke (2022)
Basis function cutoff            BFCut       ... 1.0000e-11
Integration weight cutoff        WCut        ... 1.0000e-14
Partially contracted basis set               ... on
Rotationally invariant grid construction     ... off
Angular grids for H and He will be reduced by one unit

Total number of grid points                  ...    25676
Total number of batches                      ...      204
Average number of points per batch           ...      125
Average number of grid points per atom       ...     4279
UseSFitting                                  ... on
Initializing property integral containers    ... done (  0.0 sec)

SHARK setup successfully completed in   0.4 seconds

Maximum memory used throughout the entire STARTUP-calculation: 15.3 MB
[ga00:4053110] 17 more processes have sent help message help-mpi-btl-openib.txt / error in device init
[ga00:4053110] Set MCA parameter "orte_base_help_aggregate" to 0 to see all help / error messages
--------------------------------------------------------------------------
WARNING: There was an error initializing an OpenFabrics device.

  Local host:   ga00
  Local device: mlx5_0
--------------------------------------------------------------------------


           ************************************************************
           *        Program running with 18 parallel MPI-processes    *
           *              working on a common directory               *
           ************************************************************
-------------------------------------------------------------------------------
                                 ORCA GUESS
                   Start orbitals & Density for SCF / CASSCF
-------------------------------------------------------------------------------

------------
SCF SETTINGS
------------
Hamiltonian:
 Density Functional     Method          .... DFT(GTOs)
 Exchange Functional    Exchange        .... B88
   X-Alpha parameter    XAlpha          ....  0.666667
   Becke's b parameter  XBeta           ....  0.004200
 Correlation Functional Correlation     .... LYP
 LDA part of GGA corr.  LDAOpt          .... VWN-5
 Gradients option       PostSCFGGA      .... off
 Hybrid DFT is turned on
   Fraction HF Exchange ScalHFX         ....  0.200000
   Scaling of DF-GGA-X  ScalDFX         ....  0.720000
   Scaling of DF-GGA-C  ScalDFC         ....  0.810000
   Scaling of DF-LDA-C  ScalLDAC        ....  1.000000
   Perturbative correction              ....  0.000000
   NL short-range parameter             ....  4.800000
 RI-approximation to the Coulomb term is turned on
   Number of AuxJ basis functions       .... 296
   RIJ-COSX (HFX calculated with COS-X)).... on


General Settings:
 Integral files         IntName         .... input
 Hartree-Fock type      HFTyp           .... RHF
 Total Charge           Charge          ....    0
 Multiplicity           Mult            ....    1
 Number of Electrons    NEL             ....   52
 Basis Dimension        Dim             ....  175
 Nuclear Repulsion      ENuc            ....    294.2696815567 Eh

Convergence Acceleration:
 AO-DIIS                CNVDIIS         .... on
   Start iteration      DIISMaxIt       ....    12
   Startup error        DIISStart       ....  0.200000
   # of expansion vecs  DIISMaxEq       ....     5
   Bias factor          DIISBfac        ....   1.050
   Max. coefficient     DIISMaxC        ....  10.000
 MO-DIIS                CNVKDIIS        .... off
 Trust-Rad. Augm. Hess. CNVTRAH         .... auto
   Auto Start mean grad. ratio tolernc. ....  1.125000
   Auto Start start iteration           ....    50
   Auto Start num. interpolation iter.  ....    10
   Max. Number of Micro iterations      ....    24
   Max. Number of Macro iterations      .... Maxiter - #DIIS iter
   Number of Davidson start vectors     ....     2
   Converg. threshold    (grad. norm)   ....   1.000e-05
   Grad. Scal. Fac. for Micro threshold ....   0.100
   Minimum threshold for Micro iter.    ....   1.000e-02
   NR start threshold (gradient norm)   ....   1.000e-04
   Initial trust radius                 ....   0.400
   Minimum AH scaling param. (alpha)    ....   1.000
   Maximum AH scaling param. (alpha)    .... 1000.000
   Quad. conv. algorithm                .... NR
   White noise on init. David. guess    .... on
   Maximum white noise                  ....   0.010
   Pseudo random numbers                .... off
   Inactive MOs                         .... canonical
   Orbital update algorithm             .... Taylor
   Preconditioner                       .... Diag
   Full preconditioner red. dimension   ....   250
 SOSCF                  CNVSOSCF        .... on
   Start iteration      SOSCFMaxIt      ....   150
   Startup grad/error   SOSCFStart      ....  0.003300
   Hessian update       SOSCFHessUp     .... L-BFGS
 Level Shifting         CNVShift        .... on
   Level shift para.    LevelShift      ....    0.2500
   Turn off err/grad.   ShiftErr        ....    0.0010
 Zerner damping         CNVZerner       .... off
 Static damping         CNVDamp         .... on
   Fraction old density DampFac         ....    0.7000
   Max. Damping (<1)    DampMax         ....    0.9800
   Min. Damping (>=0)   DampMin         ....    0.0000
   Turn off err/grad.   DampErr         ....    0.1000

SCF Procedure:
 Maximum # iterations   MaxIter         ....   125
 SCF integral mode      SCFMode         .... Direct
   Integral package                     .... SHARK and LIBINT hybrid scheme
 Reset frequency        DirectResetFreq ....    20
 Integral Threshold     Thresh          ....  2.500e-11 Eh
 Primitive CutOff       TCut            ....  2.500e-12 Eh

Convergence Tolerance:
 Convergence Check Mode ConvCheckMode   .... Total+1el-Energy
 Convergence forced     ConvForced      .... 0
 Energy Change          TolE            ....  1.000e-08 Eh
 1-El. energy change                    ....  1.000e-05 Eh
 Orbital Gradient       TolG            ....  1.000e-05
 Orbital Rotation angle TolX            ....  1.000e-05
 DIIS Error             TolErr          ....  5.000e-07

------------------------------
INITIAL GUESS: MODEL POTENTIAL
------------------------------
Loading Hartree-Fock densities                     ... done
Calculating cut-offs                               ... done
Initializing the effective Hamiltonian             ... done
Setting up the integral package (SHARK)            ... done
Starting the Coulomb interaction                   ... done (   0.0 sec)
Making the grid                                    ... done (   0.0 sec)
Mapping shells                                     ... done
Starting the XC term evaluation                    ... done (   0.0 sec)
  promolecular density results
     # of electrons  =     52.000474997
     EX              =    -60.992168053
     EC              =     -1.979357584
     EX+EC           =    -62.971525637
Transforming the Hamiltonian                       ... done (   0.0 sec)
Diagonalizing the Hamiltonian                      ... done (   0.0 sec)
Back transforming the eigenvectors                 ... done (   0.0 sec)
Now organizing SCF variables                       ... done
                      ------------------
                      INITIAL GUESS DONE (   0.1 sec)
                      ------------------
             **** ENERGY FILE WAS UPDATED (input.en.tmp) ****
Finished Guess after   0.4 sec
Maximum memory used throughout the entire GUESS-calculation: 9.8 MB
[ga00:4053193] 17 more processes have sent help message help-mpi-btl-openib.txt / error in device init
[ga00:4053193] Set MCA parameter "orte_base_help_aggregate" to 0 to see all help / error messages
--------------------------------------------------------------------------
WARNING: There was an error initializing an OpenFabrics device.

  Local host:   ga00
  Local device: mlx5_0
--------------------------------------------------------------------------


           ************************************************************
           *        Program running with 18 parallel MPI-processes    *
           *              working on a common directory               *
           ************************************************************

-------------------------------------------------------------------------------------------
                                      ORCA LEAN-SCF
                              memory conserving SCF solver
-------------------------------------------------------------------------------------------

----------------------------------------D-I-I-S--------------------------------------------
Iteration    Energy (Eh)           Delta-E    RMSDP     MaxDP     DIISErr   Damp  Time(sec)
-------------------------------------------------------------------------------------------
               ***  Starting incremental Fock matrix formation  ***
    1    -698.8844632031118635     0.00e+00  2.82e-03  1.33e-01  4.02e-01  0.700   0.2
    2    -699.0606132984908072    -1.76e-01  1.52e-03  5.59e-02  1.54e-01  0.700   0.1
                               ***Turning on AO-DIIS***
    3    -699.1110474205052014    -5.04e-02  4.19e-04  8.15e-03  2.68e-02  0.700   0.1
    4    -699.1460626144260004    -3.50e-02  5.47e-04  2.36e-02  9.99e-03  0.000   0.1
    5    -699.2302693414064834    -8.42e-02  2.23e-04  4.53e-03  1.15e-02  0.000   0.1
                              *** Initializing SOSCF ***
---------------------------------------S-O-S-C-F--------------------------------------
Iteration    Energy (Eh)           Delta-E    RMSDP     MaxDP     MaxGrad    Time(sec)
--------------------------------------------------------------------------------------
    6    -699.2306625581470598    -3.93e-04  7.28e-05  1.53e-03  2.60e-03     0.1
               *** Restarting incremental Fock matrix formation ***
    7    -699.2306354547761202     2.71e-05  5.45e-05  1.05e-03  5.26e-04     0.2
    8    -699.2306329308078148     2.52e-06  2.50e-05  7.03e-04  7.20e-04     0.2
    9    -699.2306425584688441    -9.63e-06  1.00e-05  1.76e-04  8.17e-05     0.2
   10    -699.2306424406656333     1.18e-07  4.52e-06  1.21e-04  1.59e-04     0.1
   11    -699.2306428079423313    -3.67e-07  2.18e-06  4.55e-05  1.35e-05     0.1
   12    -699.2306428023543958     5.59e-09  8.99e-07  2.17e-05  1.86e-05     0.1
                 **** Energy Check signals convergence ****

               *****************************************************
               *                     SUCCESS                       *
               *           SCF CONVERGED AFTER  12 CYCLES          *
               *****************************************************

Recomputing exchange energy using gridx3       ... done (    0.220 sec)
Old exchange energy                            :    -12.268671055 Eh
New exchange energy                            :    -12.268717049 Eh
Exchange energy change after final integration :     -0.000045994 Eh
Total energy after final integration           :   -699.230688796 Eh
             **** ENERGY FILE WAS UPDATED (input.en.tmp) ****

----------------
TOTAL SCF ENERGY
----------------

Total Energy       :       -699.23068879636446 Eh          -19027.03436 eV

Components:
Nuclear Repulsion  :        294.26968155674018 Eh            8007.48513 eV
Electronic Energy  :       -993.50032435909452 Eh          -27034.51823 eV
One Electron Energy:      -1556.57437807459746 Eh          -42356.54219 eV
Two Electron Energy:        563.07405371550294 Eh           15322.02396 eV

Virial components:
Potential Energy   :      -1396.52406766036302 Eh          -38001.35183 eV
Kinetic Energy     :        697.29337886399867 Eh           18974.31747 eV
Virial Ratio       :          2.00277832830640

DFT components:
N(Alpha)           :       26.000011030860 electrons
N(Beta)            :       26.000011030860 electrons
N(Total)           :       52.000022061719 electrons
E(X)               :      -48.816437783922 Eh       
E(C)               :       -2.338294601261 Eh       
E(XC)              :      -51.154732385183 Eh       

---------------
SCF CONVERGENCE
---------------

  Last Energy change         ...   -5.5879e-09  Tolerance :   1.0000e-08
  Last MAX-Density change    ...    2.1686e-05  Tolerance :   1.0000e-07
  Last RMS-Density change    ...    8.9883e-07  Tolerance :   5.0000e-09
  Last DIIS Error            ...    2.5956e-03  Tolerance :   5.0000e-07
  Last Orbital Gradient      ...    1.8636e-05  Tolerance :   1.0000e-05
  Last Orbital Rotation      ...    1.6246e-05  Tolerance :   1.0000e-05


----------------
ORBITAL ENERGIES
----------------

  NO   OCC          E(Eh)            E(eV) 
   0   2.0000     -77.167169     -2099.8254 
   1   2.0000     -24.668409      -671.2615 
   2   2.0000     -24.666696      -671.2149 
   3   2.0000     -19.102793      -519.8134 
   4   2.0000     -19.048155      -518.3266 
   5   2.0000      -6.631390      -180.4493 
   6   2.0000      -4.795760      -130.4993 
   7   2.0000      -4.794157      -130.4556 
   8   2.0000      -4.790566      -130.3579 
   9   2.0000      -2.068055       -56.2746 
  10   2.0000      -1.217830       -33.1388 
  11   2.0000      -1.179548       -32.0971 
  12   2.0000      -0.995275       -27.0828 
  13   2.0000      -0.927350       -25.2345 
  14   2.0000      -0.587806       -15.9950 
  15   2.0000      -0.514729       -14.0065 
  16   2.0000      -0.485870       -13.2212 
  17   2.0000      -0.459235       -12.4964 
  18   2.0000      -0.430478       -11.7139 
  19   2.0000      -0.426040       -11.5931 
  20   2.0000      -0.405852       -11.0438 
  21   2.0000      -0.366023        -9.9600 
  22   2.0000      -0.337376        -9.1805 
  23   2.0000      -0.336694        -9.1619 
  24   2.0000      -0.273020        -7.4292 
  25   2.0000      -0.265501        -7.2247 
  26   0.0000      -0.077357        -2.1050 
  27   0.0000       0.002049         0.0558 
  28   0.0000       0.003533         0.0961 
  29   0.0000       0.038483         1.0472 
  30   0.0000       0.085900         2.3375 
  31   0.0000       0.140963         3.8358 
  32   0.0000       0.144251         3.9253 
  33   0.0000       0.169028         4.5995 
  34   0.0000       0.208306         5.6683 
  35   0.0000       0.265951         7.2369 
  36   0.0000       0.273997         7.4558 
*Only the first 10 virtual orbitals were printed.

                    ********************************
                    * MULLIKEN POPULATION ANALYSIS *
                    ********************************

-----------------------
MULLIKEN ATOMIC CHARGES
-----------------------
   0 Li:    0.853690
   1 F :   -0.287667
   2 P :    1.043151
   3 O :   -0.775500
   4 O :   -0.548079
   5 F :   -0.285594
Sum of atomic charges:    0.0000000

--------------------------------
MULLIKEN REDUCED ORBITAL CHARGES
--------------------------------
  0 Lis       :     2.019829  s :     2.019829
      pz      :     0.043581  p :     0.126481
      px      :     0.035472
      py      :     0.047427

  1 F s       :     3.905322  s :     3.905322
      pz      :     1.810509  p :     5.369288
      px      :     1.789694
      py      :     1.769086
      dz2     :     0.001828  d :     0.012623
      dxz     :     0.002445
      dyz     :     0.002753
      dx2y2   :     0.002415
      dxy     :     0.003182
      f0      :     0.000044  f :     0.000434
      f+1     :     0.000042
      f-1     :     0.000052
      f+2     :     0.000053
      f-2     :     0.000116
      f+3     :     0.000066
      f-3     :     0.000060

  2 P s       :     4.990555  s :     4.990555
      pz      :     2.606466  p :     7.842880
      px      :     2.607215
      py      :     2.629199
      dz2     :     0.159384  d :     0.949633
      dxz     :     0.211586
      dyz     :     0.180332
      dx2y2   :     0.203505
      dxy     :     0.194827
      f0      :     0.016198  f :     0.173781
      f+1     :     0.024533
      f-1     :     0.026334
      f+2     :     0.024049
      f-2     :     0.030559
      f+3     :     0.032486
      f-3     :     0.019622

  3 O s       :     3.803142  s :     3.803142
      pz      :     1.648032  p :     4.956844
      px      :     1.767874
      py      :     1.540937
      dz2     :     0.002238  d :     0.014063
      dxz     :     0.001304
      dyz     :     0.004094
      dx2y2   :     0.002958
      dxy     :     0.003470
      f0      :     0.000130  f :     0.001452
      f+1     :     0.000019
      f-1     :     0.000378
      f+2     :     0.000297
      f-2     :     0.000242
      f+3     :     0.000202
      f-3     :     0.000185

  4 O s       :     3.803406  s :     3.803406
      pz      :     1.615760  p :     4.716235
      px      :     1.503779
      py      :     1.596697
      dz2     :     0.003979  d :     0.027098
      dxz     :     0.006051
      dyz     :     0.002898
      dx2y2   :     0.007552
      dxy     :     0.006618
      f0      :     0.000102  f :     0.001340
      f+1     :     0.000226
      f-1     :     0.000083
      f+2     :     0.000148
      f-2     :     0.000226
      f+3     :     0.000312
      f-3     :     0.000243

  5 F s       :     3.905860  s :     3.905860
      pz      :     1.720244  p :     5.366608
      px      :     1.768742
      py      :     1.877622
      dz2     :     0.003085  d :     0.012690
      dxz     :     0.004477
      dyz     :     0.002024
      dx2y2   :     0.001597
      dxy     :     0.001507
      f0      :     0.000060  f :     0.000437
      f+1     :     0.000133
      f-1     :     0.000035
      f+2     :     0.000090
      f-2     :     0.000076
      f+3     :     0.000021
      f-3     :     0.000022



                     *******************************
                     * LOEWDIN POPULATION ANALYSIS *
                     *******************************

----------------------
LOEWDIN ATOMIC CHARGES
----------------------
   0 Li:    0.710383
   1 F :   -0.032483
   2 P :   -0.015959
   3 O :   -0.345603
   4 O :   -0.286492
   5 F :   -0.029846

-------------------------------
LOEWDIN REDUCED ORBITAL CHARGES
-------------------------------
  0 Lis       :     2.057935  s :     2.057935
      pz      :     0.084553  p :     0.231682
      px      :     0.056439
      py      :     0.090691

  1 F s       :     3.684711  s :     3.684711
      pz      :     1.786816  p :     5.327989
      px      :     1.777726
      py      :     1.763447
      dz2     :     0.002028  d :     0.019098
      dxz     :     0.004219
      dyz     :     0.004526
      dx2y2   :     0.002757
      dxy     :     0.005568
      f0      :     0.000078  f :     0.000685
      f+1     :     0.000056
      f-1     :     0.000069
      f+2     :     0.000077
      f-2     :     0.000207
      f+3     :     0.000109
      f-3     :     0.000089

  2 P s       :     4.601926  s :     4.601926
      pz      :     2.673927  p :     8.076403
      px      :     2.695748
      py      :     2.706728
      dz2     :     0.277078  d :     1.773727
      dxz     :     0.398266
      dyz     :     0.359069
      dx2y2   :     0.360903
      dxy     :     0.378411
      f0      :     0.056395  f :     0.563903
      f+1     :     0.079734
      f-1     :     0.080394
      f+2     :     0.082579
      f-2     :     0.102329
      f+3     :     0.096209
      f-3     :     0.066263

  3 O s       :     3.468401  s :     3.468401
      pz      :     1.608690  p :     4.840810
      px      :     1.647025
      py      :     1.585094
      dz2     :     0.003374  d :     0.033988
      dxz     :     0.002398
      dyz     :     0.014138
      dx2y2   :     0.009037
      dxy     :     0.005042
      f0      :     0.000267  f :     0.002403
      f+1     :     0.000052
      f-1     :     0.000427
      f+2     :     0.000706
      f-2     :     0.000300
      f+3     :     0.000275
      f-3     :     0.000377

  4 O s       :     3.533795  s :     3.533795
      pz      :     1.564667  p :     4.706517
      px      :     1.572297
      py      :     1.569552
      dz2     :     0.005490  d :     0.043613
      dxz     :     0.010115
      dyz     :     0.004338
      dx2y2   :     0.009278
      dxy     :     0.014391
      f0      :     0.000293  f :     0.002568
      f+1     :     0.000305
      f-1     :     0.000119
      f+2     :     0.000280
      f-2     :     0.000498
      f+3     :     0.000381
      f-3     :     0.000694

  5 F s       :     3.684539  s :     3.684539
      pz      :     1.735171  p :     5.325495
      px      :     1.765859
      py      :     1.824464
      dz2     :     0.003896  d :     0.019123
      dxz     :     0.008446
      dyz     :     0.002481
      dx2y2   :     0.002372
      dxy     :     0.001927
      f0      :     0.000083  f :     0.000689
      f+1     :     0.000228
      f-1     :     0.000052
      f+2     :     0.000147
      f-2     :     0.000111
      f+3     :     0.000031
      f-3     :     0.000036



                      *****************************
                      * MAYER POPULATION ANALYSIS *
                      *****************************

  NA   - Mulliken gross atomic population
  ZA   - Total nuclear charge
  QA   - Mulliken gross atomic charge
  VA   - Mayer's total valence
  BVA  - Mayer's bonded valence
  FA   - Mayer's free valence

  ATOM       NA         ZA         QA         VA         BVA        FA
  0 Li     2.1463     3.0000     0.8537     0.2960     0.2960     0.0000
  1 F      9.2877     9.0000    -0.2877     1.0699     1.0699     0.0000
  2 P     13.9568    15.0000     1.0432     5.6646     5.6646     0.0000
  3 O      8.7755     8.0000    -0.7755     1.7302     1.7302    -0.0000
  4 O      8.5481     8.0000    -0.5481     2.0723     2.0723     0.0000
  5 F      9.2856     9.0000    -0.2856     1.0804     1.0804     0.0000

  Mayer bond orders larger than 0.100000
B(  0-Li,  3-O ) :   0.2677 B(  1-F ,  2-P ) :   1.0620 B(  2-P ,  3-O ) :   1.4597 
B(  2-P ,  4-O ) :   2.0527 B(  2-P ,  5-F ) :   1.0717 

-------
TIMINGS
-------

Total SCF time: 0 days 0 hours 0 min 2 sec 

Total time                  ....       2.411 sec
Sum of individual times     ....       2.398 sec  ( 99.5%)

SCF preparation             ....       0.420 sec  ( 17.4%)
Fock matrix formation       ....       1.805 sec  ( 74.9%)
  Startup                   ....       0.007 sec  (  0.4% of F)
  Split-RI-J                ....       0.146 sec  (  8.1% of F)
  Chain of spheres X        ....       1.353 sec  ( 75.0% of F)
  XC integration            ....       0.270 sec  ( 15.0% of F)
    XC Preparation          ....       0.000 sec  (  0.0% of XC)
    Basis function eval.    ....       0.072 sec  ( 26.5% of XC)
    Density eval.           ....       0.054 sec  ( 20.1% of XC)
    XC-Functional eval.     ....       0.015 sec  (  5.6% of XC)
    XC-Potential eval.      ....       0.080 sec  ( 29.7% of XC)
Diagonalization             ....       0.000 sec  (  0.0%)
Density matrix formation    ....       0.018 sec  (  0.8%)
Total Energy calculation    ....       0.015 sec  (  0.6%)
Population analysis         ....       0.009 sec  (  0.4%)
Orbital Transformation      ....       0.015 sec  (  0.6%)
Orbital Orthonormalization  ....       0.000 sec  (  0.0%)
DIIS solution               ....       0.075 sec  (  3.1%)
SOSCF solution              ....       0.041 sec  (  1.7%)
Finished LeanSCF after   2.4 sec

Maximum memory used throughout the entire LEANSCF-calculation: 13.6 MB
[ga00:4053275] 17 more processes have sent help message help-mpi-btl-openib.txt / error in device init
[ga00:4053275] Set MCA parameter "orte_base_help_aggregate" to 0 to see all help / error messages


-------------------------------------------------------------------------------
                          DFT DISPERSION CORRECTION                            
                                                                               
                              DFTD3 V3.1  Rev 1                                
                          USING Becke-Johnson damping                          
-------------------------------------------------------------------------------
The B3LYP functional is recognized
Active option DFTDOPT                   ...         4   

molecular C6(AA) [au] = 1037.066927 


            DFT-D V3
 parameters
 s6 scaling factor         :     1.0000 
 a1 scaling factor         :     0.3981 
 s8 scaling factor         :     1.9889 
 a2 scaling factor         :     4.4211 
 ad hoc parameters k1-k3   :    16.0000     1.3333    -4.0000 

 Edisp/kcal,au: -5.004444532957  -0.007975089152 
 E6   /kcal   :  -2.017696939 
 E8   /kcal   :  -2.986747594 
 % E8         :  59.681900244 

-------------------------   ----------------
Dispersion correction           -0.007975089
-------------------------   ----------------


-------------------------   --------------------
FINAL SINGLE POINT ENERGY      -699.238663885516
-------------------------   --------------------

--------------------------------------------------------------------------
WARNING: There was an error initializing an OpenFabrics device.

  Local host:   ga00
  Local device: mlx5_0
--------------------------------------------------------------------------


           ************************************************************
           *        Program running with 18 parallel MPI-processes    *
           *              working on a common directory               *
           ************************************************************
------------------------------------------------------------------------------
                         ORCA SCF GRADIENT CALCULATION
------------------------------------------------------------------------------

Nuc. rep. gradient        (SHARK) ... done (  0.0 sec)
HCore & Overlap gradient  (SHARK) ... done (  0.0 sec)
Split-RIJ-J gradient      (SHARK) ... done (  0.1 sec)
COSX-gradient                     ... done (  0.8 sec)
XC gradient                       ... done (  0.1 sec)
Dispersion correction             ... done (  0.0 sec)

-------------------
DISPERSION GRADIENT
-------------------

   1   Li  :   -0.000111457   -0.000441295   -0.000332600
   2   F   :    0.000112618    0.000163658   -0.000042459
   3   P   :    0.000052181    0.000202991    0.000158692
   4   O   :   -0.000009428   -0.000125927   -0.000079071
   5   O   :   -0.000158388    0.000184880    0.000139119
   6   F   :    0.000114474    0.000015693    0.000156319

Difference to translation invariance:
           :    0.0000000000   -0.0000000000    0.0000000000

Difference to rotation invariance:
           :    0.0000000000    0.0000000000    0.0000000000

Norm of the Dispersion gradient    ...    0.0007528443
RMS gradient                       ...    0.0001774471
MAX gradient                       ...    0.0004412952

------------------
CARTESIAN GRADIENT
------------------

   1   Li  :   -0.004070122   -0.010293091   -0.009648811
   2   F   :   -0.000866466    0.004591577    0.002673605
   3   P   :    0.007623076   -0.029074631   -0.022211236
   4   O   :    0.002855632    0.022221742    0.018275419
   5   O   :   -0.005215470    0.008842798    0.006793168
   6   F   :   -0.000326650    0.003711606    0.004117856

Difference to translation invariance:
           :   -0.0000000000   -0.0000000000    0.0000000000

Difference to rotation invariance:
           :   -0.0001673492   -0.0002263269    0.0005279477

Norm of the Cartesian gradient     ...    0.0515724084
RMS gradient                       ...    0.0121557332
MAX gradient                       ...    0.0290746315

-------
TIMINGS
-------

Total SCF gradient time     ....        1.051 sec

Densities                   ....       0.001 sec  (  0.1%)
One electron gradient       ....       0.009 sec  (  0.8%)
RI-J Coulomb gradient       ....       0.106 sec  ( 10.1%)
COSX gradient               ....       0.816 sec  ( 77.7%)
XC gradient                 ....       0.082 sec  (  7.8%)

Maximum memory used throughout the entire SCFGRAD-calculation: 28.6 MB
[ga00:4053364] 17 more processes have sent help message help-mpi-btl-openib.txt / error in device init
[ga00:4053364] Set MCA parameter "orte_base_help_aggregate" to 0 to see all help / error messages
------------------------------------------------------------------------------
                         ORCA GEOMETRY RELAXATION STEP
------------------------------------------------------------------------------

Reading the OPT-File                    .... done
Getting information on internals        .... done
Copying old internal coords+grads       .... done
Making the new internal coordinates     .... (2022 redundants) done
Validating the new internal coordinates .... (2022 redundants) done
Calculating the B-matrix                .... done
Calculating the G,G- and P matrices     .... done
Transforming gradient to internals      .... done
Projecting the internal gradient        .... done
Number of atoms                         ....   6
Number of internal coordinates          ....  15
Current Energy                          ....  -699.238663886 Eh
Current gradient norm                   ....     0.051572408 Eh/bohr
Maximum allowed component of the step   ....  0.300
Current trust radius                    ....  0.300
Evaluating the initial hessian          ....  (Almloef) done
Projecting the Hessian                  .... done
Forming the augmented Hessian           .... done
Diagonalizing the augmented Hessian     .... done
Last element of RFO vector              ....  0.999224220
Lowest eigenvalues of augmented Hessian:
 -0.001066924  0.028716752  0.305388664  0.378782456  0.597535620
Length of the computed step             ....  0.039412786
The final length of the internal step   ....  0.039412786
Converting the step to Cartesian space:
 Initial RMS(Int)=    0.0101763376
Transforming coordinates:
 Iter   0:  RMS(Cart)=    0.0101302815 RMS(Int)=    0.0101367946
done
Storing new coordinates                 .... done

                                .--------------------.
          ----------------------|Geometry convergence|-------------------------
          Item                value                   Tolerance       Converged
          ---------------------------------------------------------------------
          RMS gradient        0.0076330815            0.0000300000      NO
          MAX gradient        0.0146639005            0.0001000000      NO
          RMS step            0.0101763376            0.0006000000      NO
          MAX step            0.0185441954            0.0010000000      NO
          ........................................................
          Max(Bonds)      0.0098      Max(Angles)    0.95
          Max(Dihed)        0.53      Max(Improp)    0.00
          ---------------------------------------------------------------------

The optimization has not yet converged - more geometry cycles are needed


    ---------------------------------------------------------------------------
                         Redundant Internal Coordinates
                            (Angstroem and degrees)

        Definition                    Value    dE/dq     Step     New-Value
    ----------------------------------------------------------------------------
     1. B(P   2,F   1)                1.5746  0.001012 -0.0006    1.5740   
     2. B(O   3,P   2)                1.4929 -0.014605  0.0060    1.4989   
     3. B(O   3,Li  0)                1.7262  0.014664 -0.0098    1.7164   
     4. B(O   4,P   2)                1.4687  0.010762 -0.0040    1.4647   
     5. B(F   5,P   2)                1.5739  0.002185 -0.0013    1.5726   
     6. A(F   1,P   2,O   3)          106.75  0.007991   -0.82    105.93   
     7. A(F   1,P   2,O   4)          110.39 -0.008653    0.76    111.15   
     8. A(O   3,P   2,O   4)          122.37  0.005719   -0.49    121.88   
     9. A(F   1,P   2,F   5)           97.58 -0.003642    0.30     97.88   
    10. A(O   3,P   2,F   5)          106.53  0.006558   -0.60    105.93   
    11. A(O   4,P   2,F   5)          110.32 -0.009458    0.95    111.28   
    12. A(Li  0,O   3,P   2)          161.11  0.002096   -0.20    160.91   
    13. D(Li  0,O   3,P   2,O   4)     33.90  0.001103   -0.53     33.38   
    14. D(Li  0,O   3,P   2,F   5)    162.01 -0.001008   -0.17    161.84   
    15. D(Li  0,O   3,P   2,F   1)    -94.52  0.000459   -0.37    -94.89   
    ----------------------------------------------------------------------------

Geometry step timings:
Preparation and reading OPT file:      0.000 s (15.428 %)
Internal coordinates            :      0.000 s ( 4.461 %)
B/P matrices and projection     :      0.000 s (19.331 %)
Hessian update/contruction      :      0.000 s (11.152 %)
Making the step                 :      0.000 s (11.524 %)
Converting the step to Cartesian:      0.000 s ( 5.762 %)
Storing new data                :      0.000 s ( 2.974 %)
Checking convergence            :      0.000 s ( 0.186 %)
Final printing                  :      0.000 s (27.695 %)
Total time                      :      0.001 s
--------------------------------------------------------------------------
WARNING: There was an error initializing an OpenFabrics device.

  Local host:   ga00
  Local device: mlx5_0
--------------------------------------------------------------------------
[ga00:4053471] 17 more processes have sent help message help-mpi-btl-openib.txt / error in device init
[ga00:4053471] Set MCA parameter "orte_base_help_aggregate" to 0 to see all help / error messages

Time for energy+gradient        :      6.105 s
Time for complete geometry iter :      6.712 s

         *************************************************************
         *                GEOMETRY OPTIMIZATION CYCLE   2            *
         *************************************************************
---------------------------------
CARTESIAN COORDINATES (ANGSTROEM)
---------------------------------
  Li    -3.054618    2.420910   -1.720621
  F     -1.474597    5.842216   -0.638276
  P     -2.389376    4.863928    0.188484
  O     -2.478540    3.603795   -0.618324
  O     -3.584013    5.550482    0.685197
  F     -1.379860    4.559044    1.355104

----------------------------
CARTESIAN COORDINATES (A.U.)
----------------------------
  NO LB      ZA    FRAG     MASS         X           Y           Z
   0 Li    3.0000    0     6.941   -5.772392    4.574857   -3.251502
   1 F     9.0000    0    18.998   -2.786584   11.040188   -1.206168
   2 P    15.0000    0    30.974   -4.515267    9.191491    0.356183
   3 O     8.0000    0    15.999   -4.683763    6.810185   -1.168464
   4 O     8.0000    0    15.999   -6.772802   10.488891    1.294834
   5 F     9.0000    0    18.998   -2.607558    8.615345    2.560775

--------------------------------
INTERNAL COORDINATES (ANGSTROEM)
--------------------------------
 Li     0   0   0     0.000000000000     0.00000000     0.00000000
 F      1   0   0     3.920875868638     0.00000000     0.00000000
 P      2   1   0     1.573976308804    50.83510647     0.00000000
 O      3   2   1     1.498941286959   105.92398052    10.60371778
 O      3   2   1     1.464662602386   111.15134331   236.23975275
 F      3   2   1     1.572602470654    97.87864423   119.73014780

---------------------------
INTERNAL COORDINATES (A.U.)
---------------------------
 Li     0   0   0     0.000000000000     0.00000000     0.00000000
 F      1   0   0     7.409381596827     0.00000000     0.00000000
 P      2   1   0     2.974384164920    50.83510647     0.00000000
 O      3   2   1     2.832588523180   105.92398052    10.60371778
 O      3   2   1     2.767811197106   111.15134331   236.23975275
 F      3   2   1     2.971787987064    97.87864423   119.73014780

--------------------------------------------------------------------------
WARNING: There was an error initializing an OpenFabrics device.

  Local host:   ga00
  Local device: mlx5_0
--------------------------------------------------------------------------


           ************************************************************
           *        Program running with 18 parallel MPI-processes    *
           *              working on a common directory               *
           ************************************************************
------------------------------------------------------------------------------
                   ___                                                        
                  /   \      - P O W E R E D   B Y -                         
                 /     \                                                     
                 |  |  |   _    _      __       _____    __    __             
                 |  |  |  | |  | |    /  \     |  _  \  |  |  /  |          
                  \  \/   | |  | |   /    \    | | | |  |  | /  /          
                 / \  \   | |__| |  /  /\  \   | |_| |  |  |/  /          
                |  |  |   |  __  | /  /__\  \  |    /   |      \           
                |  |  |   | |  | | |   __   |  |    \   |  |\   \          
                \     /   | |  | | |  |  |  |  | |\  \  |  | \   \       
                 \___/    |_|  |_| |__|  |__|  |_| \__\ |__|  \__/        
                                                                              
                      - O R C A' S   B I G   F R I E N D -                    
                                      &                                       
                       - I N T E G R A L  F E E D E R -                       
                                                                              
 v1 FN, 2020, v2 2021, v3 2022-2024                                           
------------------------------------------------------------------------------


----------------------
SHARK INTEGRAL PACKAGE
----------------------

Number of atoms                             ...      6
Number of basis functions                   ...    175
Number of shells                            ...     65
Maximum angular momentum                    ...      3
Integral batch strategy                     ... SHARK/LIBINT Hybrid
RI-J (if used) integral strategy            ... SPLIT-RIJ (Revised 2003 algorithm where possible)
Printlevel                                  ...      1
Contraction scheme used                     ... SEGMENTED contraction
Prescreening option                         ... SCHWARTZ
   Thresh                                   ... 2.500e-11
   Tcut                                     ... 2.500e-12
   Tpresel                                  ... 2.500e-12 
Coulomb Range Separation                    ... NOT USED
Exchange Range Separation                   ... NOT USED
Multipole approximations                    ... NOT USED
Finite Nucleus Model                        ... NOT USED
CABS basis                                  ... NOT available
Auxiliary Coulomb fitting basis             ... AVAILABLE
   # of basis functions in Aux-J            ...    296
   # of shells in Aux-J                     ...     92
   Maximum angular momentum in Aux-J        ...      4
Auxiliary J/K fitting basis                 ... NOT available
Auxiliary Correlation fitting basis         ... NOT available
Auxiliary 'external' fitting basis          ... NOT available

Checking pre-screening integrals            ... done (  0.0 sec) Dimension = 65
Check shell pair data                       ... done (  0.0 sec)
Shell pair information
Shell pair cut-off parameter TPreSel        ...   2.5e-12
Total number of shell pairs                 ...      2145
Shell pairs after pre-screening             ...      1948
Total number of primitive shell pairs       ...      7521
Primitive shell pairs kept                  ...      5057
          la=0 lb=0:    386 shell pairs
          la=1 lb=0:    547 shell pairs
          la=1 lb=1:    203 shell pairs
          la=2 lb=0:    266 shell pairs
          la=2 lb=1:    195 shell pairs
          la=2 lb=2:     55 shell pairs
          la=3 lb=0:    134 shell pairs
          la=3 lb=1:     97 shell pairs
          la=3 lb=2:     50 shell pairs
          la=3 lb=3:     15 shell pairs

Calculating one electron integrals          ... done (  0.0 sec)
Calculating RI/J V-Matrix + Cholesky decomp.... done (  0.0 sec)
Calculating Nuclear repulsion               ... done (  0.0 sec) ENN=    294.352388153899 Eh

Diagonalization of the overlap matrix:
Smallest eigenvalue                        ... 1.560e-03
Time for diagonalization                   ...    0.002 sec
Threshold for overlap eigenvalues          ... 1.000e-07
Number of eigenvalues below threshold      ... 0
Time for construction of square roots      ...    0.002 sec
Total time needed                          ...    0.005 sec

-------------------
DFT GRID GENERATION
-------------------

General Integration Accuracy     IntAcc      ... 4.388
Radial Grid Type                 RadialGrid  ... OptM3 with GC (2021)
Angular Grid (max. ang.)         AngularGrid ... 4 (Lebedev-302)
Angular grid pruning method      GridPruning ... 4 (adaptive)
Weight generation scheme         WeightScheme... mBecke (2022)
Basis function cutoff            BFCut       ... 1.0000e-11
Integration weight cutoff        WCut        ... 1.0000e-14
Partially contracted basis set               ... off
Rotationally invariant grid construction     ... off
Angular grids for H and He will be reduced by one unit

Total number of grid points                  ...    37811
Total number of batches                      ...      593
Average number of points per batch           ...       63
Average number of grid points per atom       ...     6302

--------------------
COSX GRID GENERATION
--------------------

GRIDX 1
-------
General Integration Accuracy     IntAcc      ... 3.816
Radial Grid Type                 RadialGrid  ... OptM3 with GC (2021)
Angular Grid (max. ang.)         AngularGrid ... 1 (Lebedev-50)
Angular grid pruning method      GridPruning ... 4 (adaptive)
Weight generation scheme         WeightScheme... mBecke (2022)
Basis function cutoff            BFCut       ... 1.0000e-11
Integration weight cutoff        WCut        ... 1.0000e-14
Partially contracted basis set               ... on
Rotationally invariant grid construction     ... off
Angular grids for H and He will be reduced by one unit

Total number of grid points                  ...     5794
Total number of batches                      ...       49
Average number of points per batch           ...      118
Average number of grid points per atom       ...      966
UseSFitting                                  ... on

GRIDX 2
-------
General Integration Accuracy     IntAcc      ... 4.020
Radial Grid Type                 RadialGrid  ... OptM3 with GC (2021)
Angular Grid (max. ang.)         AngularGrid ... 2 (Lebedev-110)
Angular grid pruning method      GridPruning ... 4 (adaptive)
Weight generation scheme         WeightScheme... mBecke (2022)
Basis function cutoff            BFCut       ... 1.0000e-11
Integration weight cutoff        WCut        ... 1.0000e-14
Partially contracted basis set               ... on
Rotationally invariant grid construction     ... off
Angular grids for H and He will be reduced by one unit

Total number of grid points                  ...    11250
Total number of batches                      ...       91
Average number of points per batch           ...      123
Average number of grid points per atom       ...     1875
UseSFitting                                  ... on

GRIDX 3
-------
General Integration Accuracy     IntAcc      ... 4.338
Radial Grid Type                 RadialGrid  ... OptM3 with GC (2021)
Angular Grid (max. ang.)         AngularGrid ... 3 (Lebedev-194)
Angular grid pruning method      GridPruning ... 4 (adaptive)
Weight generation scheme         WeightScheme... mBecke (2022)
Basis function cutoff            BFCut       ... 1.0000e-11
Integration weight cutoff        WCut        ... 1.0000e-14
Partially contracted basis set               ... on
Rotationally invariant grid construction     ... off
Angular grids for H and He will be reduced by one unit

Total number of grid points                  ...    25675
Total number of batches                      ...      204
Average number of points per batch           ...      125
Average number of grid points per atom       ...     4279
UseSFitting                                  ... on
Initializing property integral containers    ... done (  0.0 sec)

SHARK setup successfully completed in   0.4 seconds

Maximum memory used throughout the entire STARTUP-calculation: 15.5 MB
[ga00:4053553] 17 more processes have sent help message help-mpi-btl-openib.txt / error in device init
[ga00:4053553] Set MCA parameter "orte_base_help_aggregate" to 0 to see all help / error messages
--------------------------------------------------------------------------
WARNING: There was an error initializing an OpenFabrics device.

  Local host:   ga00
  Local device: mlx5_0
--------------------------------------------------------------------------


           ************************************************************
           *        Program running with 18 parallel MPI-processes    *
           *              working on a common directory               *
           ************************************************************
Occupation numbers will be reassigned to an Aufbau configuration
             **** ENERGY FILE WAS UPDATED (input.en.tmp) ****
Finished Guess after   0.4 sec
Maximum memory used throughout the entire GUESS-calculation: 10.1 MB
[ga00:4053636] 17 more processes have sent help message help-mpi-btl-openib.txt / error in device init
[ga00:4053636] Set MCA parameter "orte_base_help_aggregate" to 0 to see all help / error messages
--------------------------------------------------------------------------
WARNING: There was an error initializing an OpenFabrics device.

  Local host:   ga00
  Local device: mlx5_0
--------------------------------------------------------------------------


           ************************************************************
           *        Program running with 18 parallel MPI-processes    *
           *              working on a common directory               *
           ************************************************************
----------------------------------------D-I-I-S--------------------------------------------
Iteration    Energy (Eh)           Delta-E    RMSDP     MaxDP     DIISErr   Damp  Time(sec)
-------------------------------------------------------------------------------------------
               ***  Starting incremental Fock matrix formation  ***
    1    -699.2313027322989001     0.00e+00  3.93e-05  6.23e-04  4.02e-03  0.700   0.2
                              *** Initializing SOSCF ***
---------------------------------------S-O-S-C-F--------------------------------------
Iteration    Energy (Eh)           Delta-E    RMSDP     MaxDP     MaxGrad    Time(sec)
--------------------------------------------------------------------------------------
    2    -699.2313594500491263    -5.67e-05  1.22e-04  1.92e-03  2.94e-03     0.1
               *** Restarting incremental Fock matrix formation ***
    3    -699.2314988191740213    -1.39e-04  4.58e-05  1.08e-03  4.75e-04     0.2
    4    -699.2314922384226747     6.58e-06  2.94e-05  7.85e-04  1.08e-03     0.1
    5    -699.2315057062907044    -1.35e-05  4.82e-06  8.29e-05  5.69e-05     0.2
    6    -699.2315057166400720    -1.03e-08  2.40e-06  6.32e-05  5.08e-05     0.1
    7    -699.2315057947087098    -7.81e-08  1.47e-06  3.12e-05  2.35e-05     0.1
    8    -699.2315058021681580    -7.46e-09  6.59e-07  1.71e-05  1.15e-05     0.1
                 **** Energy Check signals convergence ****

               *****************************************************
               *                     SUCCESS                       *
               *           SCF CONVERGED AFTER   8 CYCLES          *
               *****************************************************

Recomputing exchange energy using gridx3       ... done (    0.218 sec)
Old exchange energy                            :    -12.268765366 Eh
New exchange energy                            :    -12.268825755 Eh
Exchange energy change after final integration :     -0.000060389 Eh
Total energy after final integration           :   -699.231566191 Eh
             **** ENERGY FILE WAS UPDATED (input.en.tmp) ****

----------------
TOTAL SCF ENERGY
----------------

Total Energy       :       -699.23156619119618 Eh          -19027.05823 eV

Components:
Nuclear Repulsion  :        294.35238815389937 Eh            8009.73569 eV
Electronic Energy  :       -993.58389395606753 Eh          -27036.79228 eV
One Electron Energy:      -1556.70581068561796 Eh          -42360.11866 eV
Two Electron Energy:        563.12191672955043 Eh           15323.32638 eV

Virial components:
Potential Energy   :      -1396.52839887530672 Eh          -38001.46969 eV
Kinetic Energy     :        697.29683268411054 Eh           18974.41146 eV
Virial Ratio       :          2.00277461966898

DFT components:
N(Alpha)           :       26.000013018409 electrons
N(Beta)            :       26.000013018409 electrons
N(Total)           :       52.000026036818 electrons
E(X)               :      -48.816764483451 Eh       
E(C)               :       -2.338388185300 Eh       
E(XC)              :      -51.155152668751 Eh       

---------------
SCF CONVERGENCE
---------------

  Last Energy change         ...    7.4594e-09  Tolerance :   1.0000e-08
  Last MAX-Density change    ...    1.7070e-05  Tolerance :   1.0000e-07
  Last RMS-Density change    ...    6.5873e-07  Tolerance :   5.0000e-09
  Last DIIS Error            ...    2.9417e-03  Tolerance :   5.0000e-07
  Last Orbital Gradient      ...    1.1508e-05  Tolerance :   1.0000e-05
  Last Orbital Rotation      ...    1.2269e-05  Tolerance :   1.0000e-05


Total SCF time: 0 days 0 hours 0 min 1 sec 
Finished LeanSCF after   1.9 sec

Maximum memory used throughout the entire LEANSCF-calculation: 13.7 MB
[ga00:4053712] 17 more processes have sent help message help-mpi-btl-openib.txt / error in device init
[ga00:4053712] Set MCA parameter "orte_base_help_aggregate" to 0 to see all help / error messages


-------------------------------------------------------------------------------
                          DFT DISPERSION CORRECTION                            
                                                                               
                              DFTD3 V3.1  Rev 1                                
                          USING Becke-Johnson damping                          
-------------------------------------------------------------------------------
-------------------------   ----------------
Dispersion correction           -0.007988021
-------------------------   ----------------


-------------------------   --------------------
FINAL SINGLE POINT ENERGY      -699.239554212527
-------------------------   --------------------

--------------------------------------------------------------------------
WARNING: There was an error initializing an OpenFabrics device.

  Local host:   ga00
  Local device: mlx5_0
--------------------------------------------------------------------------


[...]
      pz      :     0.045227  p :     0.147145
      px      :     0.055564
      py      :     0.046354

  1 F s       :     3.909951  s :     3.909951
      pz      :     1.845686  p :     5.330798
      px      :     1.833204
      py      :     1.651908
      dz2     :     0.001784  d :     0.013559
      dxz     :     0.000991
      dyz     :     0.003290
      dx2y2   :     0.003727
      dxy     :     0.003767
      f0      :     0.000046  f :     0.000466
      f+1     :     0.000015
      f-1     :     0.000072
      f+2     :     0.000062
      f-2     :     0.000067
      f+3     :     0.000110
      f-3     :     0.000094

  2 P s       :     5.012822  s :     5.012822
      pz      :     2.581849  p :     7.778012
      px      :     2.612622
      py      :     2.583540
      dz2     :     0.205227  d :     1.038524
      dxz     :     0.229636
      dyz     :     0.164866
      dx2y2   :     0.208943
      dxy     :     0.229851
      f0      :     0.026206  f :     0.178178
      f+1     :     0.017727
      f-1     :     0.029508
      f+2     :     0.027354
      f-2     :     0.023027
      f+3     :     0.018464
      f-3     :     0.035892

  3 O s       :     3.849549  s :     3.849549
      pz      :     1.569413  p :     4.766713
      px      :     1.700847
      py      :     1.496453
      dz2     :     0.005031  d :     0.024517
      dxz     :     0.003711
      dyz     :     0.005631
      dx2y2   :     0.005432
      dxy     :     0.004712
      f0      :     0.000112  f :     0.001072
      f+1     :     0.000043
      f-1     :     0.000293
      f+2     :     0.000228
      f-2     :     0.000201
      f+3     :     0.000089
      f-3     :     0.000106

  4 O s       :     3.849523  s :     3.849523
      pz      :     1.693670  p :     4.766590
      px      :     1.374765
      py      :     1.698154
      dz2     :     0.002905  d :     0.024518
      dxz     :     0.006980
      dyz     :     0.000854
      dx2y2   :     0.006850
      dxy     :     0.006928
      f0      :     0.000123  f :     0.001072
      f+1     :     0.000178
      f-1     :     0.000028
      f+2     :     0.000193
      f-2     :     0.000023
      f+3     :     0.000253
      f-3     :     0.000275

  5 F s       :     3.910017  s :     3.910017
      pz      :     1.642960  p :     5.330875
      px      :     1.813669
      py      :     1.874246
      dz2     :     0.004724  d :     0.013555
      dxz     :     0.004412
      dyz     :     0.002705
      dx2y2   :     0.000921
      dxy     :     0.000792
      f0      :     0.000119  f :     0.000466
      f+1     :     0.000157
      f-1     :     0.000065
      f+2     :     0.000061
      f-2     :     0.000050
      f+3     :     0.000006
      f-3     :     0.000006



                     *******************************
                     * LOEWDIN POPULATION ANALYSIS *
                     *******************************

----------------------
LOEWDIN ATOMIC CHARGES
----------------------
   0 Li:    0.616320
   1 F :    0.011032
   2 P :   -0.039209
   3 O :   -0.299572
   4 O :   -0.299489
   5 F :    0.010918

-------------------------------
LOEWDIN REDUCED ORBITAL CHARGES
-------------------------------
  0 Lis       :     2.083946  s :     2.083946
      pz      :     0.079513  p :     0.299733
      px      :     0.124766
      py      :     0.095455

  1 F s       :     3.672349  s :     3.672349
      pz      :     1.799914  p :     5.295576
      px      :     1.794391
      py      :     1.701271
      dz2     :     0.002670  d :     0.020303
      dxz     :     0.001307
      dyz     :     0.004679
      dx2y2   :     0.005683
      dxy     :     0.005964
      f0      :     0.000079  f :     0.000740
      f+1     :     0.000023
      f-1     :     0.000103
      f+2     :     0.000098
      f-2     :     0.000108
      f+3     :     0.000195
      f-3     :     0.000135

  2 P s       :     4.588615  s :     4.588615
      pz      :     2.668524  p :     8.061214
      px      :     2.713351
      py      :     2.679339
      dz2     :     0.355398  d :     1.810149
      dxz     :     0.374202
      dyz     :     0.315663
      dx2y2   :     0.399346
      dxy     :     0.365541
      f0      :     0.084008  f :     0.579231
      f+1     :     0.066811
      f-1     :     0.088159
      f+2     :     0.091067
      f-2     :     0.070713
      f+3     :     0.070133
      f-3     :     0.108340

  3 O s       :     3.497871  s :     3.497871
      pz      :     1.577664  p :     4.756942
      px      :     1.615219
      py      :     1.564059
      dz2     :     0.005133  d :     0.042532
      dxz     :     0.005683
      dyz     :     0.015753
      dx2y2   :     0.008186
      dxy     :     0.007778
      f0      :     0.000254  f :     0.002228
      f+1     :     0.000102
      f-1     :     0.000455
      f+2     :     0.000542
      f-2     :     0.000421
      f+3     :     0.000224
      f-3     :     0.000230

  4 O s       :     3.497859  s :     3.497859
      pz      :     1.601735  p :     4.756865
      px      :     1.551697
      py      :     1.603433
      dz2     :     0.006815  d :     0.042537
      dxz     :     0.008175
      dyz     :     0.000939
      dx2y2   :     0.018676
      dxy     :     0.007933
      f0      :     0.000181  f :     0.002229
      f+1     :     0.000488
      f-1     :     0.000035
      f+2     :     0.000291
      f-2     :     0.000070
      f+3     :     0.000756
      f-3     :     0.000407

  5 F s       :     3.672403  s :     3.672403
      pz      :     1.696250  p :     5.295643
      px      :     1.784394
      py      :     1.814998
      dz2     :     0.007673  d :     0.020297
      dxz     :     0.007628
      dyz     :     0.002915
      dx2y2   :     0.001257
      dxy     :     0.000824
      f0      :     0.000178  f :     0.000740
      f+1     :     0.000289
      f-1     :     0.000089
      f+2     :     0.000099
      f-2     :     0.000064
      f+3     :     0.000012
      f-3     :     0.000009



                      *****************************
                      * MAYER POPULATION ANALYSIS *
                      *****************************

  NA   - Mulliken gross atomic population
  ZA   - Total nuclear charge
  QA   - Mulliken gross atomic charge
  VA   - Mayer's total valence
  BVA  - Mayer's bonded valence
  FA   - Mayer's free valence

  ATOM       NA         ZA         QA         VA         BVA        FA
  0 Li     2.1992     3.0000     0.8008     0.3876     0.3876    -0.0000
  1 F      9.2548     9.0000    -0.2548     1.1492     1.1492    -0.0000
  2 P     14.0075    15.0000     0.9925     5.6423     5.6423    -0.0000
  3 O      8.6419     8.0000    -0.6419     1.8919     1.8919     0.0000
  4 O      8.6417     8.0000    -0.6417     1.8921     1.8921    -0.0000
  5 F      9.2549     9.0000    -0.2549     1.1490     1.1490    -0.0000

  Mayer bond orders larger than 0.100000
B(  0-Li,  3-O ) :   0.1768 B(  0-Li,  4-O ) :   0.1767 B(  1-F ,  2-P ) :   1.1229 
B(  2-P ,  3-O ) :   1.6833 B(  2-P ,  4-O ) :   1.6836 B(  2-P ,  5-F ) :   1.1227 


-------
TIMINGS
-------

Total SCF time: 0 days 0 hours 0 min 1 sec 

Total time                  ....       1.267 sec
Sum of individual times     ....       1.256 sec  ( 99.1%)

SCF preparation             ....       0.443 sec  ( 35.0%)
Fock matrix formation       ....       0.688 sec  ( 54.3%)
  Startup                   ....       0.003 sec  (  0.4% of F)
  Split-RI-J                ....       0.036 sec  (  5.3% of F)
  Chain of spheres X        ....       0.570 sec  ( 82.9% of F)
  XC integration            ....       0.072 sec  ( 10.4% of F)
    Basis function eval.    ....       0.016 sec  ( 22.4% of XC)
    Density eval.           ....       0.013 sec  ( 18.1% of XC)
    XC-Functional eval.     ....       0.004 sec  (  5.2% of XC)
    XC-Potential eval.      ....       0.021 sec  ( 29.0% of XC)
Diagonalization             ....       0.000 sec  (  0.0%)
Density matrix formation    ....       0.004 sec  (  0.3%)
Total Energy calculation    ....       0.005 sec  (  0.4%)
Population analysis         ....       0.078 sec  (  6.2%)
Orbital Transformation      ....       0.009 sec  (  0.7%)
Orbital Orthonormalization  ....       0.000 sec  (  0.0%)
DIIS solution               ....       0.010 sec  (  0.8%)
SOSCF solution              ....       0.019 sec  (  1.5%)
Finished LeanSCF after   1.3 sec

Maximum memory used throughout the entire LEANSCF-calculation: 17.4 MB
[ga00:4070008] 17 more processes have sent help message help-mpi-btl-openib.txt / error in device init
[ga00:4070008] Set MCA parameter "orte_base_help_aggregate" to 0 to see all help / error messages


-------------------------------------------------------------------------------
                          DFT DISPERSION CORRECTION                            
                                                                               
                              DFTD3 V3.1  Rev 1                                
                          USING Becke-Johnson damping                          
-------------------------------------------------------------------------------
The B3LYP functional is recognized
Active option DFTDOPT                   ...         4   

molecular C6(AA) [au] = 1011.917752 


            DFT-D V3
 parameters
 s6 scaling factor         :     1.0000 
 a1 scaling factor         :     0.3981 
 s8 scaling factor         :     1.9889 
 a2 scaling factor         :     4.4211 
 ad hoc parameters k1-k3   :    16.0000     1.3333    -4.0000 

 Edisp/kcal,au: -5.348500395851  -0.008523377011 
 E6   /kcal   :  -2.129324062 
 E8   /kcal   :  -3.219176334 
 % E8         :  60.188391054 

-------------------------   ----------------
Dispersion correction           -0.008523377
-------------------------   ----------------


-------------------------   --------------------
FINAL SINGLE POINT ENERGY      -699.257769504496
-------------------------   --------------------

                                *** OPTIMIZATION RUN DONE ***

--------------------------------------------------------------------------
WARNING: There was an error initializing an OpenFabrics device.

  Local host:   ga00
  Local device: mlx5_0
--------------------------------------------------------------------------


           ************************************************************
           *        Program running with 18 parallel MPI-processes    *
           *              working on a common directory               *
           ************************************************************

------------------------------------------------------------------------------
                              ORCA PROPERTY CALCULATIONS
------------------------------------------------------------------------------

GBWName                                 ... input.gbw
Number of atoms                         ...      6
Number of basis functions               ...    175
Max core memory                         ...   5000 MB

Electric properties:
Dipole moment                           ... YES
Quadrupole moment                       ...  NO
Static polarizability (Dipole/Dipole)   ...  NO
Static polarizability (Dipole/Quad.)    ...  NO
Static polarizability (Quad./Quad.)     ...  NO
Static polarizability (Velocity)        ...  NO

Atomic electric properties:
Dipole moment                           ...  NO
Quadrupole moment                       ...  NO
Static polarizability                   ...  NO

Choice of electric origin               ... Center of mass
Position of electric origin             ...    -4.176116     8.788136     0.000824

General magnetic properties:
Magnetizability                         ...  NO

EPR properties:
g-Tensor (aka g-matrix)                 ...  NO
Zero-Field splitting spin-orbit         ...  NO
Zero-field splitting spin-spin          ...  NO
Hyperfine couplings                     ...  NO (   0 nuclei)
Quadrupole couplings                    ...  NO (   0 nuclei)
Contact density                         ...  NO (   0 nuclei)

NMR properties:
Chemical shifts                         ...  NO (   0 nuclei)
Spin-rotation constants                 ...  NO (   0 nuclei)
Spin-spin couplings                     ...  NO (   0 nuclei,    0 pairs)

Choice of magnetic origin               ... GIAO
Position of magnetic origin             ...     0.000000     0.000000     0.000000

Properties with geometric perturbations:
SCF Hessian                             ...  NO
IR spectrum                             ...  NO
VCD spectrum                            ...  NO
X-ray spectroscopy properties:
SCF XES/XAS/RIXS spectra                ...  NO


-------------
DIPOLE MOMENT
-------------

Method             : SCF
Type of density    : Electron Density
Multiplicity       :   1
Irrep              :   0
Energy             :  -699.2492461274854350 Eh
Relativity type    : 
Basis              : AO
                                X                 Y                 Z
Electronic contribution:     -1.235817181      -1.190967283      -0.844389742
Nuclear contribution   :     -0.018679353      -0.018257095      -0.011917520
                        -----------------------------------------
Total Dipole Moment    :     -1.254496534      -1.209224378      -0.856307262
                        -----------------------------------------
Magnitude (a.u.)       :      1.941454938
Magnitude (Debye)      :      4.934786280



--------------------
Rotational spectrum 
--------------------
 
Rotational constants in cm-1:             0.166045             0.114886             0.111837 
Rotational constants in MHz :          4977.906055          3444.187533          3352.774581 

Dipole components along the rotational axes: 
x,y,z [a.u.] :     1.941454    -0.001319     0.000053 
x,y,z [Debye]:     4.934785    -0.003354     0.000134 

 

Dipole moment calculation done in   0.0 sec 

Maximum memory used throughout the entire PROP-calculation: 11.0 MB
[ga00:4070098] 17 more processes have sent help message help-mpi-btl-openib.txt / error in device init
[ga00:4070098] Set MCA parameter "orte_base_help_aggregate" to 0 to see all help / error messages
--------------------------------------------------------------------------
WARNING: There was an error initializing an OpenFabrics device.

  Local host:   ga00
  Local device: mlx5_0
--------------------------------------------------------------------------
[ga00:4070174] 17 more processes have sent help message help-mpi-btl-openib.txt / error in device init
[ga00:4070174] Set MCA parameter "orte_base_help_aggregate" to 0 to see all help / error messages

--------------------------------
SUGGESTED CITATIONS FOR THIS RUN
--------------------------------

Below you find a list of papers that are relevant to this ORCA run
We neither can nor want to force you to cite these papers, but we appreciate if you do
You receive ORCA, which is the product of decades of hard work by many enthusiastic individuals, for free
The only thing we kindly ask in return is that you cite our papers,
We deeply appreciate it, if you show your appreciation for ORCA by not just citing the generic ORCA reference.

Please note that relegating all ORCA citations to the supporting information does *not* help us.
SI sections are not indexed - citations you put there will not count into any citation statistics
But we need these citations in order to attract the funding resources that allow us to do what we are doing

Therefore, if you are a happy ORCA user, please consider citing a few of the papers listed below in the main body of your paper

In addition to the list printed below, the program has created the file input.bibtex that contains the list in bibtex format
You can import this file easily into all common literature databanks and citation aid programs


List of essential papers. We consider these as the minimum necessary citations

  1. Neese,F.
     Software update: the ORCA program system, version 5.0
     WIRES Comput. Molec. Sci., 2022 12(1)e1606
     doi.org/10.1002/wcms.1606

List of papers to cite with high priority. The work reported in these papers was absolutely
necessary for this run to complete.
Our perspective: the developers of density functionals and basis sets usually get cited in chemistry papers
Good! But without the algorithms to do something with them, the functionals or basis sets would not do anything.
Hence, in our opinion, the algorithm design and method developments papers are equally worthy of getting cited

  1. Neese,F.
     An improvement of the resolution of the identity approximation for the formation of the Coulomb matrix
     J. Comp. Chem., 2003 24(14)1740-1747
     doi.org/10.1002/jcc.10318
  2. Neese,F.; Wennmohs,F.; Hansen,A.; Becker,U.
     Efficient, approximate and parallel Hartree-Fock and hybrid DFT calculations. A 'chain-of-spheres' algorithm for the Hartree-Fock exchange
     Chem. Phys., 2009 356(1-3)98-109
     doi.org/10.1016/j.chemphys.2008.10.036
  3. Helmich-Paris,B.; de Souza,B.; Neese,F.; Izsák,R.
     An improved chain of spheres for exchange algorithm
     J. Chem. Phys., 2021 155 104109
     doi.org/doi: 10.1063/5.0058766.
  4. Neese,F.
     The SHARK Integral Generation and Digestion System
     J. Comp. Chem., 2022  1-16
     doi.org/10.1002/jcc.26942
  5. Grimme,S.; Antony,J.; Ehrlich,S.; Krieg,H.
     A consistent and accurate ab initio parametrization of density functional dispersion correction (DFT-D) for the 94 elements H-Pu
     J. Chem. Phys., 2010 132 154104
     doi.org/10.1063/1.3382344
  6. Grimme,S.; Ehrlich,S.; Goerigk,L.
     Effect of the damping function in dispersion corrected density functional theory
     J. Comput. Chem., 2011 32(7)1456-1465
     doi.org/10.1002/jcc.21759

List of suggested additional citations. These are papers that are important in the 'surrounding' of 
of this run, or papers that preceded the highly important papers. If you like your results we are grateful for a citation.

  1. Izsak,R.; Neese,F.
     An overlap fitted chain of spheres exchange method
     J. Chem. Phys., 2011 135 144105
     doi.org/10.1063/1.3646921
  2. Izsak,R.; Hansen,A.; Neese,F.
     The resolution of identity and chain of spheres approximations for the LPNO-CCSD singles Fock term
     Molec. Phys., 2012 110 2413-2417
     doi.org/10.1080/00268976.2012.687466
  3. Neese,F.
     The ORCA program system
     WIRES Comput. Molec. Sci., 2012 2(1)73-78
     doi.org/10.1002/wcms.81
  4. Izsak,R.; Neese,F.; Klopper,W.
     Robust fitting techniques in the chain of spheres approximation to the Fock exchange: The role of the complementary space
     J. Chem. Phys., 2013 139 
     doi.org/10.1063/1.4819264
  5. Neese,F.
     Software update: the ORCA program system, version 4.0
     WIRES Comput. Molec. Sci., 2018 8(1)1-6
     doi.org/10.1002/wcms.1327
  6. Neese,F.; Wennmohs,F.; Becker,U.; Riplinger,C.
     The ORCA quantum chemistry program package
     J. Chem. Phys., 2020 152 Art. No. L224108
     doi.org/10.1063/5.0004608

List of optional additional citations

  1. Neese,F.
     Approximate second-order SCF convergence for spin unrestricted wavefunctions
     Chem. Phys. Lett., 2000 325(1-3)93-98
     doi.org/10.1016/s0009-2614(00)00662-x

Timings for individual modules:

Sum of individual times          ...      211.845 sec (=   3.531 min)
Startup calculation              ...       38.137 sec (=   0.636 min)  18.0 %
SCF iterations                   ...      107.710 sec (=   1.795 min)  50.8 %
Property calculations            ...        0.644 sec (=   0.011 min)   0.3 %
SCF Gradient evaluation          ...       65.271 sec (=   1.088 min)  30.8 %
Geometry relaxation              ...        0.083 sec (=   0.001 min)   0.0 %
                             ****ORCA TERMINATED NORMALLY****
TOTAL RUN TIME: 0 days 0 hours 3 minutes 56 seconds 292 msec
