[Molden Format]
[Title]
 Molden file created by orca_2mkl for BaseName=input

[Atoms] AU
O    1   8         -2.0459302914        -1.3295074506        -0.0006856954 
O    2   8          2.0458950316        -1.3295448766        -0.0006861911 
O    3   8          0.0000123602         2.4352190720        -0.0010487312 
C    4   6         -0.0000053405         0.1540724331        -0.0010000176 
C    5   6         -4.4225838300        -0.0117116706        -0.0006792501 
C    6   6          4.4225837623        -0.0118079070        -0.0006914301 
H    7   1         -4.5939644065         1.1685232906         1.6810978517 
H    8   1         -5.8572587297        -1.4834630987        -0.0005093624 
H    9   1         -4.5941067907         1.1682828226        -1.6826094827 
H   10   1          5.8572200180        -1.4835971232        -0.0004943787 
H   11   1          4.5939932233         1.1684498265         1.6810666167 
H   12   1          4.5941449935         1.1681549096        -1.6826416419 
[GTO]
  1 0
s   6 1.0 
     8588.5000000000         1.2050128859
     1297.2300000000         2.2162047744
      299.2960000000         3.6274524983
       87.3771000000         4.8884523076
       25.6789000000         4.8357205177
        3.7400400000         0.5382294948
s   3 1.0 
       42.1175000000         1.3419577961
        9.6283700000         3.5871143115
        2.8533200000        -0.0051234679
p   3 1.0 
       42.1175000000         5.5840175343
        9.6283700000         5.7333656931
        2.8533200000         4.3329547351
s   1 1.0 
        0.9056610000         0.6616591794
p   1 1.0 
        0.9056610000         1.2593521004
s   1 1.0 
        0.2556110000         0.2562092156
p   1 1.0 
        0.2556110000         0.2590684413
s   1 1.0 
        0.0845000000         0.1116998588
p   1 1.0 
        0.0845000000         0.0649398041
d   1 1.0 
        1.2920000000         4.4635405283

  2 0
s   6 1.0 
     8588.5000000000         1.2050128859
     1297.2300000000         2.2162047744
      299.2960000000         3.6274524983
       87.3771000000         4.8884523076
       25.6789000000         4.8357205177
        3.7400400000         0.5382294948
s   3 1.0 
       42.1175000000         1.3419577961
        9.6283700000         3.5871143115
        2.8533200000        -0.0051234679
p   3 1.0 
       42.1175000000         5.5840175343
        9.6283700000         5.7333656931
        2.8533200000         4.3329547351
s   1 1.0 
        0.9056610000         0.6616591794
p   1 1.0 
        0.9056610000         1.2593521004
s   1 1.0 
        0.2556110000         0.2562092156
p   1 1.0 
        0.2556110000         0.2590684413
s   1 1.0 
        0.0845000000         0.1116998588
p   1 1.0 
        0.0845000000         0.0649398041
d   1 1.0 
        1.2920000000         4.4635405283

  3 0
s   6 1.0 
     8588.5000000000         1.2050128859
     1297.2300000000         2.2162047744
      299.2960000000         3.6274524983
       87.3771000000         4.8884523076
       25.6789000000         4.8357205177
        3.7400400000         0.5382294948
s   3 1.0 
       42.1175000000         1.3419577961
        9.6283700000         3.5871143115
        2.8533200000        -0.0051234679
p   3 1.0 
       42.1175000000         5.5840175343
        9.6283700000         5.7333656931
        2.8533200000         4.3329547351
s   1 1.0 
        0.9056610000         0.6616591794
p   1 1.0 
        0.9056610000         1.2593521004
s   1 1.0 
        0.2556110000         0.2562092156
p   1 1.0 
        0.2556110000         0.2590684413
s   1 1.0 
        0.0845000000         0.1116998588
p   1 1.0 
        0.0845000000         0.0649398041
d   1 1.0 
        1.2920000000         4.4635405283

  4 0
s   6 1.0 
     4563.2400000000         0.7782017567
      682.0240000000         1.4486948054
      154.9730000000         2.3830893322
       44.4553000000         3.2000890123
       13.0290000000         3.0130044376
        1.8277300000         0.2475986326
s   3 1.0 
       20.9642000000         0.8006285193
        4.8033100000         2.1274198914
        1.4593300000        -0.0028679106
p   3 1.0 
       20.9642000000         2.5735922152
        4.8033100000         2.4082482228
        1.4593300000         1.8652813335
s   1 1.0 
        0.4834560000         0.4132166458
p   1 1.0 
        0.4834560000         0.5746273343
s   1 1.0 
        0.1455850000         0.1679761277
p   1 1.0 
        0.1455850000         0.1281846070
s   1 1.0 
        0.0438000000         0.0682363322
p   1 1.0 
        0.0438000000         0.0285616127
d   1 1.0 
        0.6260000000         1.2559581449

  5 0
s   6 1.0 
     4563.2400000000         0.7782017567
      682.0240000000         1.4486948054
      154.9730000000         2.3830893322
       44.4553000000         3.2000890123
       13.0290000000         3.0130044376
        1.8277300000         0.2475986326
s   3 1.0 
       20.9642000000         0.8006285193
        4.8033100000         2.1274198914
        1.4593300000        -0.0028679106
p   3 1.0 
       20.9642000000         2.5735922152
        4.8033100000         2.4082482228
        1.4593300000         1.8652813335
s   1 1.0 
        0.4834560000         0.4132166458
p   1 1.0 
        0.4834560000         0.5746273343
s   1 1.0 
        0.1455850000         0.1679761277
p   1 1.0 
        0.1455850000         0.1281846070
s   1 1.0 
        0.0438000000         0.0682363322
p   1 1.0 
        0.0438000000         0.0285616127
d   1 1.0 
        0.6260000000         1.2559581449

  6 0
s   6 1.0 
     4563.2400000000         0.7782017567
      682.0240000000         1.4486948054
      154.9730000000         2.3830893322
       44.4553000000         3.2000890123
       13.0290000000         3.0130044376
        1.8277300000         0.2475986326
s   3 1.0 
       20.9642000000         0.8006285193
        4.8033100000         2.1274198914
        1.4593300000        -0.0028679106
p   3 1.0 
       20.9642000000         2.5735922152
        4.8033100000         2.4082482228
        1.4593300000         1.8652813335
s   1 1.0 
        0.4834560000         0.4132166458
p   1 1.0 
        0.4834560000         0.5746273343
s   1 1.0 
        0.1455850000         0.1679761277
p   1 1.0 
        0.1455850000         0.1281846070
s   1 1.0 
        0.0438000000         0.0682363322
p   1 1.0 
        0.0438000000         0.0285616127
d   1 1.0 
        0.6260000000         1.2559581449

  7 0
s   3 1.0 
       33.8650000000         0.2550693200
        5.0947900000         0.4601086622
        1.1587900000         0.6783214465
s   1 1.0 
        0.3258400000         0.3073713539
s   1 1.0 
        0.1027410000         0.1293355558
s   1 1.0 
        0.0360000000         0.0589029394
p   1 1.0 
        0.7500000000         0.9948707607

  8 0
s   3 1.0 
       33.8650000000         0.2550693200
        5.0947900000         0.4601086622
        1.1587900000         0.6783214465
s   1 1.0 
        0.3258400000         0.3073713539
s   1 1.0 
        0.1027410000         0.1293355558
s   1 1.0 
        0.0360000000         0.0589029394
p   1 1.0 
        0.7500000000         0.9948707607

  9 0
s   3 1.0 
       33.8650000000         0.2550693200
        5.0947900000         0.4601086622
        1.1587900000         0.6783214465
s   1 1.0 
        0.3258400000         0.3073713539
s   1 1.0 
        0.1027410000         0.1293355558
s   1 1.0 
        0.0360000000         0.0589029394
p   1 1.0 
        0.7500000000         0.9948707607

 10 0
s   3 1.0 
       33.8650000000         0.2550693200
        5.0947900000         0.4601086622
        1.1587900000         0.6783214465
s   1 1.0 
        0.3258400000         0.3073713539
s   1 1.0 
        0.1027410000         0.1293355558
s   1 1.0 
        0.0360000000         0.0589029394
p   1 1.0 
        0.7500000000         0.9948707607

 11 0
s   3 1.0 
       33.8650000000         0.2550693200
        5.0947900000         0.4601086622
        1.1587900000         0.6783214465
s   1 1.0 
        0.3258400000         0.3073713539
s   1 1.0 
        0.1027410000         0.1293355558
s   1 1.0 
        0.0360000000         0.0589029394
p   1 1.0 
        0.7500000000         0.9948707607

 12 0
s   3 1.0 
       33.8650000000         0.2550693200
        5.0947900000         0.4601086622
        1.1587900000         0.6783214465
s   1 1.0 
        0.3258400000         0.3073713539
s   1 1.0 
        0.1027410000         0.1293355558
s   1 1.0 
        0.0360000000         0.0589029394
p   1 1.0 
        0.7500000000         0.9948707607

[5D]
[7F]
[9G]
[MO]
 Sym=     1a
 Ene= -1.91751800393879E+01
 Spin= Alpha
 Occup= 2.000000
  1      -0.391312296304
  2      -0.333347844251
  3       0.000057220314
  4      -0.000924299965
  5       0.000000136281
  6      -0.009998152487
  7      -0.000328811654
  8      -0.000071103810
  9       0.000000039550
 10       0.008421126972
 11       0.000145781207
 12       0.001150384225
 13      -0.000000212793
 14      -0.007188613394
 15      -0.004849908613
 16       0.000203641965
 17       0.000000340383
 18       0.000010585081
 19       0.000000023724
 20       0.000000000421
 21      -0.000065861682
 22      -0.000109187874
 23       0.388386115064
 24       0.330854916807
 25       0.000057236757
 26       0.000917129022
 27      -0.000000138318
 28       0.009923786466
 29      -0.000328320850
 30       0.000071581158
 31      -0.000000039354
 32      -0.008348807892
 33       0.000139400661
 34      -0.001139958223
 35       0.000000209861
 36       0.007197745092
 37      -0.004854097130
 38      -0.000196337369
 39      -0.000000338268
 40      -0.000010821279
 41       0.000000023211
 42      -0.000000001619
 43       0.000066016430
 44      -0.000109159256
 45       0.000000344359
 46       0.000000185797
 47      -0.000000278113
 48       0.000000205758
 49      -0.000000000689
 50       0.000000667363
 51       0.000037971467
 52      -0.000000938111
 53       0.000000000258
 54      -0.000003294700
 55      -0.001246507164
 56      -0.000000601295
 57       0.000000000519
 58      -0.000003843216
 59       0.000907042228
 60       0.000001241593
 61       0.000000001124
 62      -0.000000244354
 63       0.000000006250
 64      -0.000000000235
 65      -0.000000307372
 66       0.000242548652
 67      -0.000000035615
 68       0.000000138120
 69       0.000271396928
 70       0.000000986746
 71      -0.000000000237
 72      -0.000001749441
 73       0.000005565244
 74      -0.000001444408
 75       0.000000000381
 76      -0.000028013468
 77       0.002963584937
 78       0.000020203800
 79      -0.000000007031
 80      -0.000011604987
 81      -0.013794123930
 82      -0.000002164905
 83       0.000000021099
 84       0.000000469632
 85      -0.000000068138
 86      -0.000000000375
 87      -0.000000038705
 88       0.000702044971
 89      -0.000016901247
 90       0.000069340663
 91      -0.000072722301
 92       0.000081642448
 93      -0.000000010191
 94      -0.000264121261
 95      -0.000145288500
 96      -0.000122966928
 97       0.000000044824
 98      -0.002848650424
 99      -0.000446353570
100       0.001206319096
101      -0.000000176215
102      -0.008911367497
103      -0.003861797514
104      -0.000871883666
105       0.000000451880
106      -0.000108121699
107      -0.000000001548
108      -0.000000026187
109       0.000031699994
110      -0.000066442631
111       0.000016804774
112      -0.000068983447
113      -0.000072301059
114      -0.000080856873
115       0.000000002491
116       0.000264716035
117      -0.000144361691
118       0.000121039112
119       0.000000005930
120       0.002817031015
121      -0.000432871686
122      -0.001205942137
123       0.000000202576
124       0.008934261725
125      -0.003871886299
126       0.000876855896
127      -0.000000466501
128       0.000106877268
129      -0.000000006927
130       0.000000067625
131      -0.000032255467
132      -0.000065939179
133      -0.000016690995
134       0.000498174543
135      -0.000151123803
136      -0.000029251265
137       0.000120608596
138      -0.000161084695
139      -0.000104812098
140      -0.000067128189
141       0.000769108296
142      -0.000558107654
143      -0.001354497284
144       0.000069892129
145       0.000073976671
146      -0.000000006367
147      -0.000016692742
148       0.000498128521
149      -0.000151203224
150      -0.000029533722
151       0.000120623710
152      -0.000161065890
153       0.000104829937
154       0.000066774268
155      -0.000765965779
156       0.000558464785
157       0.001359442861
158       0.000069067445
159      -0.000073889109
160       0.000000010367
161       0.000016086483
162      -0.000489054968
163       0.000146033422
164       0.000025126855
165       0.000119606358
166       0.000160037663
167       0.000103238831
168       0.000016096240
169      -0.000488910432
170       0.000146073991
171       0.000025404319
172       0.000119598931
173       0.000159982255
174      -0.000103219031
 Sym=     1a
 Ene= -1.91751678009258E+01
 Spin= Alpha
 Occup= 2.000000
  1      -0.388388261963
  2      -0.330883325534
  3      -0.000006107271
  4      -0.000950380142
  5       0.000000151760
  6      -0.009862341163
  7      -0.000052564612
  8       0.000060410837
  9      -0.000000024077
 10       0.009557562236
 11       0.000843189532
 12       0.001359823056
 13      -0.000000156869
 14       0.001224260395
 15       0.000565494425
 16       0.000960038464
 17      -0.000000268623
 18      -0.000027532435
 19      -0.000000009924
 20       0.000000006622
 21       0.000019876753
 22       0.000001412470
 23      -0.391314428007
 24      -0.333376042259
 25       0.000005611478
 26      -0.000957297481
 27       0.000000154623
 28      -0.009937147502
 29       0.000055110767
 30       0.000059897778
 31      -0.000000021801
 32       0.009620752626
 33      -0.000844218317
 34       0.001368573934
 35      -0.000000172563
 36       0.001170255243
 37      -0.000529089146
 38       0.000961498851
 39      -0.000000261438
 40      -0.000027481367
 41       0.000000008590
 42       0.000000004954
 43       0.000019394776
 44      -0.000000554507
 45       0.000092410180
 46       0.000049896659
 47       0.000000002316
 48       0.000054740596
 49       0.000000009590
 50       0.000179661563
 51      -0.000000143454
 52      -0.000250832065
 53      -0.000000039505
 54      -0.000885150434
 55       0.000004690423
 56      -0.000155467761
 57       0.000000240521
 58      -0.001062770860
 59      -0.000003395047
 60       0.000350062047
 61       0.000000027127
 62      -0.000064950741
 63      -0.000000000315
 64      -0.000000029135
 65      -0.000083390029
 66      -0.000000913216
 67      -0.000009484333
 68       0.000036587568
 69      -0.000001008214
 70       0.000263920983
 71      -0.000000023670
 72      -0.000464470541
 73      -0.000000062391
 74      -0.000387902358
 75      -0.000000058060
 76      -0.007372197699
 77      -0.000011142131
 78       0.005382112385
 79      -0.000000949899
 80      -0.003043662800
 81       0.000051963857
 82      -0.000611518235
 83       0.000000103992
 84       0.000123270352
 85      -0.000000000172
 86       0.000000015016
 87      -0.000009327964
 88      -0.000002633451
 89      -0.000013313034
 90       0.000049513108
 91      -0.000063082696
 92       0.000101248363
 93      -0.000000002727
 94       0.000068304067
 95      -0.000087570318
 96      -0.000233470753
 97       0.000000018199
 98      -0.004203292775
 99      -0.001776254341
100       0.000054812210
101       0.000000226070
102       0.003103318467
103       0.001339253011
104       0.000637875013
105      -0.000000029247
106      -0.000151228744
107       0.000000006051
108      -0.000000002624
109      -0.000055038669
110      -0.000101273107
111      -0.000013435874
112       0.000050016033
113       0.000063576791
114       0.000101877550
115      -0.000000012150
116       0.000066402838
117       0.000088910025
118      -0.000234556870
119       0.000000072696
120      -0.004224465624
121       0.001779652541
122       0.000063785026
123       0.000000236720
124       0.003035746954
125      -0.001310164027
126       0.000631364650
127      -0.000000064000
128      -0.000152137461
129      -0.000000010131
130       0.000000032367
131      -0.000054931263
132       0.000101513714
133      -0.000080659560
134       0.001211397102
135      -0.000673441943
136      -0.000551153656
137       0.000136129413
138      -0.000137353225
139      -0.000210949657
140      -0.000041957278
141       0.000473953417
142       0.000028149331
143       0.000640178252
144       0.000134361566
145       0.000031051860
146      -0.000000022810
147      -0.000080667277
148       0.001211521434
149      -0.000673449494
150      -0.000550786377
151       0.000136131217
152      -0.000137344289
153       0.000210962737
154      -0.000042498824
155       0.000479298827
156       0.000024133059
157       0.000630057648
158      -0.000134694881
159       0.000031467154
160      -0.000000020746
161      -0.000080778738
162       0.001215076358
163      -0.000674528068
164      -0.000551278507
165      -0.000137015337
166      -0.000138570322
167      -0.000211706689
168      -0.000080777471
169       0.001215288596
170      -0.000674566615
171      -0.000550973008
172      -0.000137038588
173      -0.000138585703
174       0.000211766820
 Sym=     1a
 Ene= -1.91141936639924E+01
 Spin= Alpha
 Occup= 2.000000
  1      -0.000068273256
  2      -0.000076018822
  3      -0.000060516366
  4      -0.000042893528
  5       0.000000014964
  6       0.000038519093
  7       0.000300749950
  8       0.000120882323
  9      -0.000000065236
 10      -0.000311383282
 11      -0.001396711543
 12       0.000878699709
 13       0.000000146078
 14      -0.001586176234
 15      -0.001177924161
 16      -0.000568075763
 17       0.000000250776
 18      -0.000073385052
 19       0.000000005806
 20      -0.000000033227
 21      -0.000118164680
 22       0.000103457654
 23      -0.000068276735
 24      -0.000076021534
 25       0.000060500452
 26      -0.000042898713
 27       0.000000018228
 28       0.000038521812
 29      -0.000300732971
 30       0.000120888189
 31      -0.000000069042
 32      -0.000311415591
 33       0.001396725939
 34       0.000878645166
 35       0.000000151823
 36      -0.001586197655
 37       0.001178023330
 38      -0.000568075627
 39       0.000000258437
 40      -0.000073382767
 41      -0.000000005433
 42      -0.000000033092
 43      -0.000118168382
 44      -0.000103453640
 45      -0.551308854233
 46      -0.469693746310
 47       0.000000008451
 48       0.001237359708
 49       0.000000007697
 50      -0.014042087067
 51       0.000000009722
 52       0.000806832367
 53      -0.000000015407
 54       0.011421072134
 55      -0.000000028772
 56      -0.002149315642
 57       0.000000044369
 58      -0.001531720267
 59       0.000000001974
 60      -0.000786602620
 61      -0.000000049439
 62       0.000143252016
 63       0.000000000024
 64       0.000000003516
 65       0.000287278440
 66      -0.000000004241
 67       0.000027711256
 68      -0.000111737161
 69      -0.000000005022
 70      -0.000388511231
 71       0.000000027569
 72      -0.000484236647
 73       0.000000018955
 74       0.001063750982
 75      -0.000000076263
 76      -0.001402471863
 77      -0.000000047981
 78      -0.007066712630
 79       0.000000333570
 80       0.005341803924
 81      -0.000000017942
 82       0.001078249054
 83       0.000000133998
 84      -0.000315383645
 85      -0.000000000213
 86      -0.000000075281
 87      -0.001021990891
 88       0.000000010839
 89      -0.000006969014
 90       0.000028428106
 91       0.000019460623
 92      -0.000022362049
 93       0.000000001308
 94      -0.000125165356
 95      -0.000171160981
 96       0.000045631185
 97       0.000000002774
 98      -0.001596734601
 99      -0.000249443515
100       0.000267444930
101      -0.000000160282
102      -0.000344858060
103      -0.000463003063
104       0.000335905864
105      -0.000000152780
106      -0.000064345476
107      -0.000000035573
108      -0.000000025067
109       0.000037328132
110       0.000126399809
111      -0.000006965647
112       0.000028430254
113      -0.000019448780
114      -0.000022380670
115       0.000000003328
116      -0.000125192322
117       0.000171092009
118       0.000045716180
119      -0.000000007810
120      -0.001596802101
121       0.000249414819
122       0.000267486269
123      -0.000000195240
124      -0.000344823585
125       0.000463045176
126       0.000335862693
127      -0.000000159226
128      -0.000064309618
129       0.000000027462
130      -0.000000021160
131       0.000037309670
132      -0.000126355840
133      -0.000080398303
134       0.000531606342
135      -0.000032277267
136      -0.000684343543
137       0.000114265608
138      -0.000057240863
139      -0.000099376389
140      -0.000048033300
141       0.000225354945
142      -0.000127648039
143       0.000386212604
144      -0.000024386198
145      -0.000006101961
146      -0.000000005266
147      -0.000080422469
148       0.000531554827
149      -0.000032407149
150      -0.000684636657
151       0.000114282782
152      -0.000057208990
153       0.000099368739
154      -0.000048032297
155       0.000225505239
156      -0.000127698677
157       0.000386164408
158       0.000024335532
159      -0.000006025740
160       0.000000027773
161      -0.000080419399
162       0.000531604832
163      -0.000032273535
164      -0.000684326671
165      -0.000114254350
166      -0.000057243418
167      -0.000099357713
168      -0.000080426121
169       0.000531495922
170      -0.000032400024
171      -0.000684622542
172      -0.000114274283
173      -0.000057196234
174       0.000099351723
 Sym=     1a
 Ene= -1.03461663723104E+01
 Spin= Alpha
 Occup= 2.000000
  1      -0.000037106635
  2      -0.000080660986
  3       0.000222744445
  4       0.000146645405
  5      -0.000000031923
  6       0.000798578371
  7      -0.000334043281
  8      -0.000166528665
  9       0.000000042587
 10      -0.002288053727
 11      -0.000877070321
 12      -0.000977920626
 13       0.000000183096
 14       0.004440014788
 15       0.002741408501
 16       0.001663087371
 17      -0.000000446959
 18       0.000379064196
 19       0.000000119425
 20       0.000000076994
 21      -0.000229497133
 22      -0.000392931519
 23      -0.000037106083
 24      -0.000080658860
 25      -0.000222733481
 26       0.000146652129
 27      -0.000000031824
 28       0.000798568119
 29       0.000334008017
 30      -0.000166545504
 31       0.000000042073
 32      -0.002287980311
 33       0.000877103284
 34      -0.000977926500
 35       0.000000191328
 36       0.004440259754
 37      -0.002740942334
 38       0.001663298135
 39      -0.000000415888
 40       0.000379067218
 41      -0.000000117130
 42       0.000000077599
 43      -0.000229488311
 44       0.000392922222
 45      -0.000096362764
 46      -0.000058272841
 47      -0.000000003492
 48      -0.000549730287
 49       0.000000012147
 50       0.000375322532
 51       0.000000011733
 52       0.001879912662
 53      -0.000000029672
 54      -0.004996837496
 55       0.000000019681
 56       0.002256782749
 57      -0.000000026536
 58       0.006563680214
 59      -0.000000024491
 60      -0.002711966858
 61       0.000000034855
 62       0.000599367893
 63       0.000000000481
 64       0.000000027880
 65       0.000911645296
 66      -0.000000013159
 67       0.563058128013
 68       0.463330604717
 69      -0.000000007160
 70      -0.000790541250
 71      -0.000000034009
 72       0.018420428798
 73       0.000000009401
 74       0.002131399118
 75       0.000000292433
 76      -0.012609780669
 77      -0.000000018927
 78       0.000619584722
 79      -0.000000255226
 80      -0.013059311257
 81      -0.000000225913
 82       0.000518933711
 83      -0.000000458129
 84      -0.001571723886
 85       0.000000000389
 86      -0.000000243357
 87      -0.001325934128
 88       0.000000027424
 89      -0.000010261239
 90      -0.000008427515
 91      -0.000101105984
 92      -0.000024640640
 93       0.000000005472
 94      -0.000220636627
 95       0.000323708035
 96       0.000112519489
 97      -0.000000002014
 98       0.001373124672
 99       0.000209229218
100       0.000580996314
101       0.000000023818
102       0.003104599440
103       0.001614283225
104      -0.000809386653
105       0.000000062011
106       0.000006288291
107      -0.000000047101
108       0.000000004767
109       0.000197834374
110       0.000027191584
111      -0.000010274178
112      -0.000008401905
113       0.000101142146
114      -0.000024672137
115       0.000000001992
116      -0.000220756849
117      -0.000324082117
118       0.000112944863
119      -0.000000006273
120       0.001372322601
121      -0.000209227586
122       0.000581188509
123      -0.000000042920
124       0.003104881988
125      -0.001614285414
126      -0.000809378848
127       0.000000046029
128       0.000006466916
129       0.000000035010
130       0.000000022860
131       0.000197784422
132      -0.000026933164
133       0.000036342319
134      -0.000454204424
135      -0.000929902772
136       0.001044156678
137      -0.000145919590
138      -0.000009836733
139       0.000081132603
140       0.000020941386
141       0.000099336562
142       0.000392598703
143      -0.000465256999
144       0.000071289269
145      -0.000004281237
146      -0.000000078925
147       0.000036284595
148      -0.000454055853
149      -0.000929994581
150       0.001044277732
151      -0.000145940846
152      -0.000009877171
153      -0.000081106143
154       0.000020948136
155       0.000100155005
156       0.000392382944
157      -0.000465313598
158      -0.000071592312
159      -0.000003843110
160      -0.000000039924
161       0.000036258975
162      -0.000454159204
163      -0.000929872725
164       0.001044204373
165       0.000145950580
166      -0.000009832618
167       0.000081192089
168       0.000036293138
169      -0.000454148125
170      -0.000929916921
171       0.001044213458
172       0.000145966530
173      -0.000009863818
174      -0.000081164574
 Sym=     1a
 Ene= -1.02300306983538E+01
 Spin= Alpha
 Occup= 2.000000
  1      -0.000014615928
  2      -0.000056501284
  3      -0.000039764989
  4       0.000012752506
  5       0.000000007174
  6       0.000451094759
  7      -0.000126463765
  8       0.000121089835
  9      -0.000000025882
 10      -0.000889952184
 11      -0.000237282163
 12      -0.000461652355
 13       0.000000098193
 14       0.001323225336
 15      -0.007135823297
 16       0.001855161514
 17       0.000000077026
 18       0.000057575647
 19       0.000000002012
 20      -0.000000001984
 21      -0.000047133709
 22       0.000044579588
 23       0.000021516875
 24       0.000077752551
 25      -0.000047274829
 26      -0.000025589733
 27      -0.000000005059
 28      -0.000589821427
 29      -0.000259881205
 30      -0.000158252576
 31       0.000000019746
 32       0.000661214728
 33       0.000275907837
 34       0.000547693021
 35      -0.000000097439
 36      -0.004675027275
 37      -0.008255615722
 38      -0.002729860887
 39       0.000000006286
 40      -0.000090174002
 41      -0.000000000335
 42      -0.000000007372
 43       0.000057926011
 44       0.000076151264
 45       0.000000342670
 46       0.000004254502
 47      -0.000015644550
 48       0.000003533981
 49      -0.000000003073
 50      -0.000052271479
 51       0.000038189111
 52      -0.000009996746
 53       0.000000012865
 54       0.000388948965
 55       0.000588454233
 56      -0.000054760237
 57      -0.000000026313
 58       0.000392619962
 59      -0.000784442580
 60      -0.000450867120
 61       0.000000041051
 62       0.000002795245
 63       0.000000001827
 64      -0.000000005099
 65       0.000005353117
 66      -0.000038529787
 67      -0.000002797291
 68      -0.000004370668
 69       0.000057821032
 70      -0.000003481939
 71       0.000000000492
 72       0.000040273637
 73      -0.000082450640
 74      -0.000003089158
 75       0.000000004016
 76       0.000116415710
 77      -0.002545255136
 78      -0.000762914387
 79       0.000000069996
 80      -0.001184228239
 81       0.002349494342
 82       0.000566745319
 83      -0.000000084413
 84       0.000022140484
 85      -0.000000080446
 86      -0.000000015427
 87      -0.000030446818
 88       0.000024996693
 89       0.307730281848
 90       0.253132693680
 91       0.000540897669
 92      -0.000309874962
 93      -0.000000014730
 94       0.010868803844
 95      -0.000882114616
 96       0.000504674105
 97       0.000000091646
 98      -0.008487862006
 99      -0.002146622671
100       0.000816828277
101       0.000000150181
102      -0.006061511421
103      -0.000232338306
104      -0.000328564309
105      -0.000000163539
106       0.000362477433
107       0.000000000730
108       0.000000061254
109      -0.000408633879
110       0.000465797706
111      -0.471510084299
112      -0.387856710898
113       0.000850758039
114       0.000473248623
115      -0.000000016364
116      -0.016588039305
117      -0.001439300056
118      -0.000770806810
119       0.000000109815
120       0.012205774653
121      -0.002667875243
122      -0.001052437088
123      -0.000000076440
124       0.012537321316
125      -0.000701595773
126       0.000125082341
127      -0.000000052817
128      -0.000547278327
129       0.000000019317
130       0.000000045601
131       0.000639905926
132       0.000701577592
133       0.000095780987
134      -0.001742665821
135       0.001855054069
136       0.001166349793
137      -0.000002636751
138       0.000629442051
139       0.000978271099
140       0.000091633312
141      -0.001691604303
142       0.000483576371
143       0.000616281319