
                                 *****************
                                 * O   R   C   A *
                                 *****************

                                            #,                                       
                                            ###                                      
                                            ####                                     
                                            #####                                    
                                            ######                                   
                                           ########,                                 
                                     ,,################,,,,,                         
                               ,,#################################,,                 
                          ,,##########################################,,             
                       ,#########################################, ''#####,          
                    ,#############################################,,   '####,        
                  ,##################################################,,,,####,       
                ,###########''''           ''''###############################       
              ,#####''   ,,,,##########,,,,          '''####'''          '####       
            ,##' ,,,,###########################,,,                        '##       
           ' ,,###''''                  '''############,,,                           
         ,,##''                                '''############,,,,        ,,,,,,###''
      ,#''                                            '''#######################'''  
     '                                                          ''''####''''         
             ,#######,   #######,   ,#######,      ##                                
            ,#'     '#,  ##    ##  ,#'     '#,    #''#        ,####,   ,####,        
            ##       ##  ##   ,#'  ##            #'  '#       #'       #'  '#        
            ##       ##  #######   ##           ,######,      #####,   #    #        
            '#,     ,#'  ##    ##  '#,     ,#' ,#      #,     #,   #   #,  ,#        
             '#######'   ##     ##  '#######'  #'      '#     '####' # '####'        



                #########################################################
                #                        -***-                          #
                #          Department of theory and spectroscopy        #
                #                                                       #
                #                      Frank Neese                      #
                #                                                       #
                #     Directorship, Architecture, Infrastructure        #
                #                    SHARK, DRIVERS                     #
                #        Core code/Algorithms in most modules           #
                #                                                       #
                #        Max Planck Institute fuer Kohlenforschung      #
                #                Kaiser Wilhelm Platz 1                 #
                #                 D-45470 Muelheim/Ruhr                 #
                #                      Germany                          #
                #                                                       #
                #                  All rights reserved                  #
                #                        -***-                          #
                #########################################################


                         Program Version 6.0.1  -  RELEASE   -


 With contributions from (in alphabetic order):
[Max-Planck-Institut fuer Kohlenforschung]                               
  Daniel Aravena         : Magnetic Suceptibility                        
  Michael Atanasov       : Ab Initio Ligand Field Theory (pilot matlab implementation)
  Alexander A. Auer      : GIAO ZORA, VPT2 properties, NMR spectrum      
  Ute Becker             : All parallelization in ORCA, NUMFREQ, NUMCALC 
  Giovanni Bistoni       : ED, misc. LED, open-shell LED, HFLD           
  Martin Brehm           : Molecular dynamics                            
  Dmytro Bykov           : pre 5.0 version of the SCF Hessian            
  Marcos Casanova-Páez   : Triplet and SCS-CIS(D). UHF-(DLPNO)-IP/EA/STEOM-CCSD. UHF-CVS-IP/STEOM-CCSD   
  Vijay G. Chilkuri      : MRCI spin determinant printing, contributions to CSF-ICE 
  Pauline Colinet        : FMM embedding                                 
  Dipayan Datta          : RHF DLPNO-CCSD density                        
  Achintya Kumar Dutta   : EOM-CC, STEOM-CC                              
  Nicolas Foglia         : Exact transition moments, OPA infrastructure, MCD improvements    
  Dmitry Ganyushin       : Spin-Orbit,Spin-Spin,Magnetic field MRCI      
  Miquel Garcia-Rates    : C-PCM and meta-GGA Hessian, CCSD/C-PCM, Gaussian charge scheme 
  Tiago L. C. Gouveia    : GS-ROHF, GS-ROCIS                             
  Yang Guo               : DLPNO-NEVPT2, F12-NEVPT2, CIM, IAO-localization        
  Andreas Hansen         : Spin unrestricted coupled pair/coupled cluster methods 
  Ingolf Harden          : AUTO-CI MPn and infrastructure                
  Benjamin Helmich-Paris : MC-RPA, TRAH-(SCF,CASSCF), AVAS, COSX integrals, SCF dyn. polar. 
  Lee Huntington         : MR-EOM, pCC                                   
  Robert Izsak           : Overlap fitted RIJCOSX, COSX-SCS-MP3, EOM     
  Riya Kayal             : Wick's Theorem for AUTO-CI, AUTO-CI UHF-CCSDT 
  Emily Kempfer          : AUTO-CI, RHF CISDT and CCSDT                  
  Christian Kollmar      : KDIIS, OOCD, Brueckner-CCSD(T), CCSD density, CASPT2, CASPT2-K, improved NEVPT2 
  Axel Koslowski         : Symmetry handling                             
  Simone Kossmann        : meta-GGA functionals, TD-DFT gradient, OOMP2, (MP2 Hessian; deprecated post 5.0) 
  Lucas Lang             : DCDCAS                                        
  Marvin Lechner         : AUTO-CI (C++ implementation), FIC-MRCC        
  Spencer Leger          : CASSCF response                               
  Dagmar Lenk            : GEPOL surface, SMD, ORCA-2-JSON               
  Dimitrios Liakos       : Extrapolation schemes; Compound Job, initial MDCI parallelization 
  Dimitrios Manganas     : Further ROCIS development; embedding schemes. LFT, Crystal Embedding 
  Dimitrios Pantazis     : SARC Basis sets                               
  Anastasios Papadopoulos: AUTO-CI, single reference methods and gradients 
  Taras Petrenko         : pre 6.0 DFT Hessian and TD-DFT gradient, (ASA, deprecated), ECA, 1-Electron XAS/XES, NRVS 
  Peter Pinski           : DLPNO-MP2, DLPNO-MP2 Gradient                 
  Christoph Reimann      : Effective Core Potentials                     
  Marius Retegan         : Local ZFS, SOC                                
  Christoph Riplinger    : Optimizer, TS searches, QM/MM, DLPNO-CCSD(T), (RO)-DLPNO pert. Triples 
  Michael Roemelt        : Original ROCIS implementation                 
  Masaaki Saitow         : Open-shell DLPNO-CCSD energy and density      
  Barbara Sandhoefer     : DKH picture change effects                    
  Kantharuban Sivalingam : CASSCF convergence/infrastructure, NEVPT2 and variants, FIC-MRCI 
  Bernardo de Souza      : ESD, SOC TD-DFT                               
  Georgi L. Stoychev     : AutoAux, RI-MP2 NMR, DLPNO-MP2 response, X2C  
  Van Anh Tran           : RI-MP2 g-tensors                              
  Willem Van den Heuvel  : Paramagnetic NMR                              
  Zikuan Wang            : NOTCH, Electric field optimization            
  Frank Wennmohs         : Technical directorship and infrastructure     
  Hang Xu                : AUTO-CI-Response properties                   
                                                                         
[FACCTs GmbH]                                                            
  Markus Bursch, Miquel Garcia-Rates, Christoph Riplinger, Bernardo de Souza, Georgi L. Stoychev 
                                                                 
  APM, Basis sets (HGBS, AHGBS, def-TZVP (Ac-Lr), def2-XVPD (La-Lu)), CI-OPT, improved COSX, DLPNO-Multilevel,           
  DOCKER, DRACO, updates on ESD, GOAT, IRC, LR-CPCM, MBIS, meta-GGA TD-DFT gradient, ML-optimized integration grids, 
  MM, NACMEs, nearIR, NEB, NEB-TS, NL-DFT gradient (VV10), 2- and 3-layer-ONIOM, interface openCOSMO-RS, QMMM,   
  Crystal-QMMM, SF, symmetry and pop. for TD-DFT, r2SCAN hybrids, SOLVATOR                                   
                                                                         
[Other institutions]                                                     
  V. Asgeirsson          : NEB                                           
  Christoph Bannwarth    : sTDA-DFT, sTD-DFT, PBEh-3c, B97-3c, D3        
  Sebastian Ehlert       : rSCAN, r2SCAN, r2SCAN-3c, D4, dhf basis sets  
  Marvin Friede          : D4 for Fr, Ra, Ac-Lr                          
  Lars Goerigk           : TD-DFT with DH, B97 family of functionals     
  Stefan Grimme          : VdW corrections, initial TS optimization, DFT functionals, gCP, sTDA/sTD-DF 
  Waldemar Hujo          : DFT-NL                                        
  H. Jonsson             : NEB                                           
  Holger Kruse           : gCP                                           
  Marcel Mueller         : wB97X-3c, vDZP basis set                      
  Hagen Neugebauer       : wr2SCAN                                       
  Tobias Risthaus        : range-separated hybrid DFT                    
  Lukas Wittmann         : regularized MP2, r2SCAN double-hybrids, wr2SCAN        
                                                                         
We gratefully acknowledge several colleagues who have allowed us to      
interface, adapt or use parts of their codes:                            
  Ed Valeev, F. Pavosevic, A. Kumar             : LibInt (2-el integral package), F12 methods 
  Garnet Chan, S. Sharma, J. Yang, R. Olivares  : DMRG                   
  Ulf Ekstrom                                   : XCFun DFT Library      
  Mihaly Kallay                                 : mrcc  (arbitrary order and MRCC methods)
  Frank Weinhold                                : gennbo (NPA and NBO analysis)           
  Simon Mueller                                 : openCOSMO-RS                            
  Christopher J. Cramer and Donald G. Truhlar   : smd solvation model                     
  S Lehtola, MJT Oliveira, MAL Marques          : LibXC Library                           
  Liviu Ungur et al                             : ANISO software                          


 Your calculation uses the libint2 library for the computation of 2-el integrals
 For citations please refer to: http://libint.valeyev.net

 Your ORCA version has been built with support for libXC version: 6.2.2
 For citations please refer to: https://libxc.gitlab.io

 This ORCA versions uses:
   CBLAS   interface :  Fast vector & matrix operations
   LAPACKE interface :  Fast linear algebra routines
   SCALAPACK package :  Parallel linear algebra routines
   Shared memory     :  Shared parallel matrices
   BLAS/LAPACK       :  OpenBLAS 0.3.27  USE64BITINT DYNAMIC_ARCH NO_AFFINITY SkylakeX SINGLE_THREADED
        Core in use  :  SkylakeX
   Copyright (c) 2011-2014, The OpenBLAS Project


NOTE: MaxCore=5000 MB was set to SCF,MP2,MDCI,CIPSI,MRCI and CIS
      => If you want to overwrite this, your respective input block should be placed after the MaxCore statement
Your calculation utilizes the atom-pairwise dispersion correction
with the Becke-Johnson damping scheme (D3BJ)


Warning: RI is on but no J-basis has been assigned. Assigning Def2/J (nothing to worry about!)
================================================================================

----- Orbital basis set information -----
Your calculation utilizes the basis: 6-311++G(d,p)
   H, Li - Ne  : R. Krishnan, J. S. Binkley, R. Seeger and J. A. Pople, J. Chem. Phys. 72, 650 (1980).
   Na - Ar     : A. D. McLean and G. S. Chandler J. Chem. Phys. 72, 5639, (1980).
   K  - Ca     : J.-P. Blaudeau, M. P. McGrath, L. A. Curtiss and L. Radom, J. Chem. Phys. 107, 5016 (1997).
   Ga - Kr     : L. A. Curtiss, M. P. McGrath, J.-P. Blandeau, N. E. Davis, R. C. Binning and L. Radom, J. Chem. Phys. 103, 6104 (1995).
   Pol./Diff.
   H, Li - Cl  : T. Clark, J. Chandrasekhar and P. v. R. Schleyer, J. Comp. Chem. 4, 294 (1983).
   H - Ne      : M. J. Frisch, J. A. Pople and J. S. Binkley, J. Chem. Phys. 80, 3265 (1984).

----- AuxJ basis set information -----
Your calculation utilizes the auxiliary basis: def2/J
   F. Weigend, Phys. Chem. Chem. Phys. 8, 1057 (2006).

================================================================================
                                        WARNINGS
                       Please study these warnings very carefully!
================================================================================


WARNING: Geometry Optimization
  ===> : Switching off AutoStart
         For restart on a previous wavefunction, please use MOREAD

================================================================================
                                       INPUT FILE
================================================================================
NAME = input.inp
|  1> ! B3LYP D3BJ 6-311++G(d,p) Opt TightSCF RIJCOSX
|  2> 
|  3> %maxcore 5000
|  4> 
|  5> %pal
|  6> nprocs 32
|  7> end
|  8> 
|  9> * xyz 0 1
| 10> H        1.7294124136     -1.3569281212     -2.3539049334                 
| 11> O       -0.1324712609      0.6111576681     -2.1496334557                 
| 12> C        2.1459055401     -1.2712357357     -1.3555867855                 
| 13> H        3.1143607504     -1.7150237253     -1.1495833262                 
| 14> H       -2.0899383856     -1.3815569816     -1.1049318433                 
| 15> S       -0.1187059689      0.1135859007     -0.6961407827                 
| 16> C        1.4856653467     -0.6310514327     -0.3896646980                 
| 17> C       -1.7110415810     -0.6586911211     -0.3895607473                 
| 18> O       -0.1177596334      1.4832568323      0.0007394269                 
| 19> H        1.9202516205     -0.5582210988      0.6019050930                 
| 20> C       -2.4293012193     -0.3643254402      0.6944783523                 
| 21> H       -3.3884914997     -0.8450444926      0.8573418698                 
| 22> H       -2.0717491024      0.3543788362      1.4247116555                 
| 23> *
| 24> 
| 25>                          ****END OF INPUT****
================================================================================

                       *****************************
                       * Geometry Optimization Run *
                       *****************************

Geometry optimization settings:
Update method            Update   .... BFGS
Choice of coordinates    CoordSys .... (2022) Redundant Internals
Initial Hessian          InHess   .... Almloef's Model
Max. no of cycles        MaxIter  .... 50

Convergence Tolerances:
Energy Change            TolE     ....  5.0000e-06 Eh
Max. Gradient            TolMAXG  ....  3.0000e-04 Eh/bohr
RMS Gradient             TolRMSG  ....  1.0000e-04 Eh/bohr
Max. Displacement        TolMAXD  ....  4.0000e-03 bohr
RMS Displacement         TolRMSD  ....  2.0000e-03 bohr
Strict Convergence                .... False

------------------------------------------------------------------------------
                        ORCA OPTIMIZATION COORDINATE SETUP
------------------------------------------------------------------------------

The optimization will be done in redundant internal coordinates (2022)
Making redundant internal coordinates   ...  (2022 redundants) done
Evaluating the initial hessian          ...  (Almloef) done
Evaluating the coordinates              ...  done
Calculating the B-matrix                .... done
Calculating the G-matrix                .... done
Diagonalizing the G-matrix              .... done
The first mode is                       ....   15
The number of degrees of freedom        ....   33

    -----------------------------------------------------------------
                    Redundant Internal Coordinates


    -----------------------------------------------------------------
         Definition                    Initial Value    Approx d2E/dq
    -----------------------------------------------------------------
      1. B(C   2,H   0)                  1.0851         0.366637   
      2. B(H   3,C   2)                  1.0850         0.366735   
      3. B(S   5,O   1)                  1.5364         0.881317   
      4. B(C   6,S   5)                  1.7951         0.380346   
      5. B(C   6,C   2)                  1.3337         0.768351   
      6. B(C   7,S   5)                  1.7961         0.378981   
      7. B(C   7,H   4)                  1.0853         0.366385   
      8. B(O   8,S   5)                  1.5368         0.880018   
      9. B(H   9,C   6)                  1.0851         0.366679   
     10. B(C  10,C   7)                  1.3333         0.769484   
     11. B(H  11,C  10)                  1.0852         0.366505   
     12. B(H  12,C  10)                  1.0852         0.366530   
     13. A(H   0,C   2,H   3)          119.0102         0.292502   
     14. A(H   3,C   2,C   6)          120.0449         0.367187   
     15. A(H   0,C   2,C   6)          120.9449         0.367170   
     16. A(C   7,S   5,O   8)          107.8404         0.469038   
     17. A(O   1,S   5,C   7)          107.0255         0.469165   
     18. A(C   6,S   5,C   7)          125.7927         0.405532   
     19. A(C   6,S   5,O   8)          106.9622         0.469347   
     20. A(O   1,S   5,O   8)           98.0692         0.545809   
     21. A(O   1,S   5,C   6)          107.6902         0.469474   
     22. A(S   5,C   6,H   9)          119.0866         0.342903   
     23. A(C   2,C   6,H   9)          119.7212         0.367177   
     24. A(C   2,C   6,S   5)          121.1920         0.436076   
     25. A(S   5,C   7,C  10)          121.4294         0.435909   
     26. A(H   4,C   7,C  10)          119.6633         0.367219   
     27. A(H   4,C   7,S   5)          118.9072         0.342651   
     28. A(H  11,C  10,H  12)          118.9219         0.292460   
     29. A(C   7,C  10,H  12)          121.0533         0.367244   
     30. A(C   7,C  10,H  11)          120.0248         0.367240   
     31. D(H   9,C   6,C   2,H   0)    179.9312         0.042303   
     32. D(H   9,C   6,C   2,H   3)     -0.1255         0.042303   
     33. D(H   9,C   6,S   5,C   7)    -85.4395         0.004037   
     34. D(C   2,C   6,S   5,O   8)   -137.6642         0.004037   
     35. D(H   9,C   6,S   5,O   1)    147.0534         0.004037   
     36. D(C   2,C   6,S   5,C   7)     94.3985         0.004037   
     37. D(S   5,C   6,C   2,H   3)   -179.9625         0.042303   
     38. D(S   5,C   6,C   2,H   0)      0.0942         0.042303   
     39. D(C   2,C   6,S   5,O   1)    -33.1086         0.004037   
     40. D(C  10,C   7,S   5,C   6)    100.7644         0.004019   
     41. D(C  10,C   7,S   5,O   1)   -131.4591         0.004019   
     42. D(H   4,C   7,S   5,O   8)    153.3322         0.004019   
     43. D(H   4,C   7,S   5,C   6)    -79.0859         0.004019   
     44. D(H   4,C   7,S   5,O   1)     48.6906         0.004019   
     45. D(H  11,C  10,C   7,H   4)     -0.1198         0.042441   
     46. D(H  12,C  10,C   7,S   5)      0.1023         0.042441   
     47. D(H  12,C  10,C   7,H   4)    179.9514         0.042441   
     48. D(H  11,C  10,C   7,S   5)   -179.9690         0.042441   
    -----------------------------------------------------------------

Number of atoms                         .... 13
Number of degrees of freedom            .... 48


         *************************************************************
         *                GEOMETRY OPTIMIZATION CYCLE   1            *
         *************************************************************
---------------------------------
CARTESIAN COORDINATES (ANGSTROEM)
---------------------------------
  H      1.729412   -1.356928   -2.353905
  O     -0.132471    0.611158   -2.149633
  C      2.145906   -1.271236   -1.355587
  H      3.114361   -1.715024   -1.149583
  H     -2.089938   -1.381557   -1.104932
  S     -0.118706    0.113586   -0.696141
  C      1.485665   -0.631051   -0.389665
  C     -1.711042   -0.658691   -0.389561
  O     -0.117760    1.483257    0.000739
  H      1.920252   -0.558221    0.601905
  C     -2.429301   -0.364325    0.694478
  H     -3.388491   -0.845044    0.857342
  H     -2.071749    0.354379    1.424712

----------------------------
CARTESIAN COORDINATES (A.U.)
----------------------------
  NO LB      ZA    FRAG     MASS         X           Y           Z
   0 H     1.0000    0     1.008    3.268116   -2.564223   -4.448236
   1 O     8.0000    0    15.999   -0.250334    1.154921   -4.062219
   2 C     6.0000    0    12.011    4.055174   -2.402287   -2.561688
   3 H     1.0000    0     1.008    5.885289   -3.240925   -2.172398
   4 H     1.0000    0     1.008   -3.949411   -2.610764   -2.088019
   5 S    16.0000    0    32.060   -0.224322    0.214646   -1.315515
   6 C     6.0000    0    12.011    2.807501   -1.192514   -0.736360
   7 C     6.0000    0    12.011   -3.233400   -1.244746   -0.736163
   8 O     8.0000    0    15.999   -0.222533    2.802949    0.001397
   9 H     1.0000    0     1.008    3.628750   -1.054885    1.137436
  10 C     6.0000    0    12.011   -4.590714   -0.688475    1.312374
  11 H     1.0000    0     1.008   -6.403321   -1.596903    1.620141
  12 H     1.0000    0     1.008   -3.915038    0.669679    2.692315

--------------------------------
INTERNAL COORDINATES (ANGSTROEM)
--------------------------------
 H      0   0   0     0.000000000000     0.00000000     0.00000000
 O      1   0   0     2.716928289082     0.00000000     0.00000000
 C      1   2   0     1.085103144305    97.85442513     0.00000000
 H      3   1   2     1.085030275759   119.01015436   197.24310148
 H      2   1   3     2.982279443372    89.54846385   270.95498051
 S      2   1   3     1.536361968236    80.23481891   327.68695548
 C      3   1   2     1.333701066172   120.94487719    17.18696978
 C      5   2   1     1.085289659863    63.68551595   108.82921448
 O      6   2   1     1.536763281365    98.06917592   136.10142970
 H      7   3   1     1.085071489504   119.72116073   179.93116603
 C      8   5   2     1.333299978086   119.66326140   155.76716774
 H     11   8   5     1.085201053578   120.02476882   359.88020187
 H     11   8   5     1.085182026352   121.05329542   179.95144634

---------------------------
INTERNAL COORDINATES (A.U.)
---------------------------
 H      0   0   0     0.000000000000     0.00000000     0.00000000
 O      1   0   0     5.134250391869     0.00000000     0.00000000
 C      1   2   0     2.050547769794    97.85442513     0.00000000
 H      3   1   2     2.050410068198   119.01015436   197.24310148
 H      2   1   3     5.635691402797    89.54846385   270.95498051
 S      2   1   3     2.903303362538    80.23481891   327.68695548
 C      3   1   2     2.520329759584   120.94487719    17.18696978
 C      5   2   1     2.050900233117    63.68551595   108.82921448
 O      6   2   1     2.904061734447    98.06917592   136.10142970
 H      7   3   1     2.050487950889   119.72116073   179.93116603
 C      8   5   2     2.519571812946   119.66326140   155.76716774
 H     11   8   5     2.050732791505   120.02476882   359.88020187
 H     11   8   5     2.050696835259   121.05329542   179.95144634

---------------------
BASIS SET INFORMATION
---------------------
There are 4 groups of distinct atoms

 Group   1 Type H   : 6s1p contracted to 4s1p pattern {3111/1}
 Group   2 Type O   : 12s6p1d contracted to 5s4p1d pattern {63111/3111/1}
 Group   3 Type C   : 12s6p1d contracted to 5s4p1d pattern {63111/3111/1}
 Group   4 Type S   : 14s10p1d contracted to 7s6p1d pattern {6311111/421111/1}

Atom   0H    basis set group =>   1
Atom   1O    basis set group =>   2
Atom   2C    basis set group =>   3
Atom   3H    basis set group =>   1
Atom   4H    basis set group =>   1
Atom   5S    basis set group =>   4
Atom   6C    basis set group =>   3
Atom   7C    basis set group =>   3
Atom   8O    basis set group =>   2
Atom   9H    basis set group =>   1
Atom  10C    basis set group =>   3
Atom  11H    basis set group =>   1
Atom  12H    basis set group =>   1
---------------------------------
AUXILIARY/J BASIS SET INFORMATION
---------------------------------
There are 4 groups of distinct atoms

 Group   1 Type H   : 5s2p1d contracted to 3s1p1d pattern {311/2/1}
 Group   2 Type O   : 12s5p4d2f1g contracted to 6s4p3d1f1g pattern {711111/2111/211/2/1}
 Group   3 Type C   : 12s5p4d2f1g contracted to 6s4p3d1f1g pattern {711111/2111/211/2/1}
 Group   4 Type S   : 14s5p5d2f1g contracted to 8s4p3d1f1g pattern {71111111/2111/311/2/1}

Atom   0H    basis set group =>   1
Atom   1O    basis set group =>   2
Atom   2C    basis set group =>   3
Atom   3H    basis set group =>   1
Atom   4H    basis set group =>   1
Atom   5S    basis set group =>   4
Atom   6C    basis set group =>   3
Atom   7C    basis set group =>   3
Atom   8O    basis set group =>   2
Atom   9H    basis set group =>   1
Atom  10C    basis set group =>   3
Atom  11H    basis set group =>   1
Atom  12H    basis set group =>   1
--------------------------------------------------------------------------
WARNING: There was an error initializing an OpenFabrics device.

  Local host:   ga00
  Local device: mlx5_0
--------------------------------------------------------------------------


           ************************************************************
           *        Program running with 32 parallel MPI-processes    *
           *              working on a common directory               *
           ************************************************************
------------------------------------------------------------------------------
                             ORCA STARTUP CALCULATIONS
                           -- RI-GTO INTEGRALS CHOSEN --
------------------------------------------------------------------------------
------------------------------------------------------------------------------
                   ___                                                        
                  /   \      - P O W E R E D   B Y -                         
                 /     \                                                     
                 |  |  |   _    _      __       _____    __    __             
                 |  |  |  | |  | |    /  \     |  _  \  |  |  /  |          
                  \  \/   | |  | |   /    \    | | | |  |  | /  /          
                 / \  \   | |__| |  /  /\  \   | |_| |  |  |/  /          
                |  |  |   |  __  | /  /__\  \  |    /   |      \           
                |  |  |   | |  | | |   __   |  |    \   |  |\   \          
                \     /   | |  | | |  |  |  |  | |\  \  |  | \   \       
                 \___/    |_|  |_| |__|  |__|  |_| \__\ |__|  \__/        
                                                                              
                      - O R C A' S   B I G   F R I E N D -                    
                                      &                                       
                       - I N T E G R A L  F E E D E R -                       
                                                                              
 v1 FN, 2020, v2 2021, v3 2022-2024                                           
------------------------------------------------------------------------------


----------------------
SHARK INTEGRAL PACKAGE
----------------------

Number of atoms                             ...     13
Number of basis functions                   ...    204
Number of shells                            ...    104
Maximum angular momentum                    ...      2
Integral batch strategy                     ... SHARK/LIBINT Hybrid
RI-J (if used) integral strategy            ... SPLIT-RIJ (Revised 2003 algorithm where possible)
Printlevel                                  ...      1
Contraction scheme used                     ... SEGMENTED contraction
Prescreening option                         ... SCHWARTZ
   Thresh                                   ... 2.500e-11
   Tcut                                     ... 2.500e-12
   Tpresel                                  ... 2.500e-12 
Coulomb Range Separation                    ... NOT USED
Exchange Range Separation                   ... NOT USED
Multipole approximations                    ... NOT USED
Finite Nucleus Model                        ... NOT USED
CABS basis                                  ... NOT available
Auxiliary Coulomb fitting basis             ... AVAILABLE
   # of basis functions in Aux-J            ...    411
   # of shells in Aux-J                     ...    137
   Maximum angular momentum in Aux-J        ...      4
Auxiliary J/K fitting basis                 ... NOT available
Auxiliary Correlation fitting basis         ... NOT available
Auxiliary 'external' fitting basis          ... NOT available

Checking pre-screening integrals            ... done (  0.0 sec) Dimension = 104
Check shell pair data                       ... done (  0.0 sec)
Shell pair information
Shell pair cut-off parameter TPreSel        ...   2.5e-12
Total number of shell pairs                 ...      5460
Shell pairs after pre-screening             ...      5013
Total number of primitive shell pairs       ...     16640
Primitive shell pairs kept                  ...     11451
          la=0 lb=0:   1702 shell pairs
          la=1 lb=0:   2011 shell pairs
          la=1 lb=1:    629 shell pairs
          la=2 lb=0:    401 shell pairs
          la=2 lb=1:    242 shell pairs
          la=2 lb=2:     28 shell pairs

Calculating one electron integrals          ... done (  0.0 sec)
Calculating RI/J V-Matrix + Cholesky decomp.... done (  0.0 sec)
Calculating Nuclear repulsion               ... done (  0.0 sec) ENN=    380.515258300695 Eh

Diagonalization of the overlap matrix:
Smallest eigenvalue                        ... 3.029e-05
Time for diagonalization                   ...    0.003 sec
Threshold for overlap eigenvalues          ... 1.000e-07
Number of eigenvalues below threshold      ... 0
Time for construction of square roots      ...    0.002 sec
Total time needed                          ...    0.006 sec

-------------------
DFT GRID GENERATION
-------------------

General Integration Accuracy     IntAcc      ... 4.388
Radial Grid Type                 RadialGrid  ... OptM3 with GC (2021)
Angular Grid (max. ang.)         AngularGrid ... 4 (Lebedev-302)
Angular grid pruning method      GridPruning ... 4 (adaptive)
Weight generation scheme         WeightScheme... mBecke (2022)
Basis function cutoff            BFCut       ... 1.0000e-11
Integration weight cutoff        WCut        ... 1.0000e-14
Partially contracted basis set               ... off
Rotationally invariant grid construction     ... off
Angular grids for H and He will be reduced by one unit
Diffuse basis detected: some atoms will have their outermost
                        angular grid increased by 1.

Total number of grid points                  ...    66549
Total number of batches                      ...     1046
Average number of points per batch           ...       63
Average number of grid points per atom       ...     5119

--------------------
COSX GRID GENERATION
--------------------

GRIDX 1
-------
General Integration Accuracy     IntAcc      ... 3.816
Radial Grid Type                 RadialGrid  ... OptM3 with GC (2021)
Angular Grid (max. ang.)         AngularGrid ... 1 (Lebedev-50)
Angular grid pruning method      GridPruning ... 4 (adaptive)
Weight generation scheme         WeightScheme... mBecke (2022)
Basis function cutoff            BFCut       ... 1.0000e-11
Integration weight cutoff        WCut        ... 1.0000e-14
Partially contracted basis set               ... on
Rotationally invariant grid construction     ... off
Angular grids for H and He will be reduced by one unit
Diffuse basis detected: some atoms will have their outermost
                        angular grid increased by 1.

Total number of grid points                  ...     9580
Total number of batches                      ...       81
Average number of points per batch           ...      118
Average number of grid points per atom       ...      737
UseSFitting                                  ... on

GRIDX 2
-------
General Integration Accuracy     IntAcc      ... 4.020
Radial Grid Type                 RadialGrid  ... OptM3 with GC (2021)
Angular Grid (max. ang.)         AngularGrid ... 2 (Lebedev-110)
Angular grid pruning method      GridPruning ... 4 (adaptive)
Weight generation scheme         WeightScheme... mBecke (2022)
Basis function cutoff            BFCut       ... 1.0000e-11
Integration weight cutoff        WCut        ... 1.0000e-14
Partially contracted basis set               ... on
Rotationally invariant grid construction     ... off
Angular grids for H and He will be reduced by one unit
Diffuse basis detected: some atoms will have their outermost
                        angular grid increased by 1.

Total number of grid points                  ...    20437
Total number of batches                      ...      167
Average number of points per batch           ...      122
Average number of grid points per atom       ...     1572
UseSFitting                                  ... on

GRIDX 3
-------
General Integration Accuracy     IntAcc      ... 4.338
Radial Grid Type                 RadialGrid  ... OptM3 with GC (2021)
Angular Grid (max. ang.)         AngularGrid ... 3 (Lebedev-194)
Angular grid pruning method      GridPruning ... 4 (adaptive)
Weight generation scheme         WeightScheme... mBecke (2022)
Basis function cutoff            BFCut       ... 1.0000e-11
Integration weight cutoff        WCut        ... 1.0000e-14
Partially contracted basis set               ... on
Rotationally invariant grid construction     ... off
Angular grids for H and He will be reduced by one unit
Diffuse basis detected: some atoms will have their outermost
                        angular grid increased by 1.

Total number of grid points                  ...    46073
Total number of batches                      ...      367
Average number of points per batch           ...      125
Average number of grid points per atom       ...     3544
UseSFitting                                  ... on
Initializing property integral containers    ... done (  0.0 sec)

SHARK setup successfully completed in   0.6 seconds

Maximum memory used throughout the entire STARTUP-calculation: 21.3 MB
[ga00:150661] 31 more processes have sent help message help-mpi-btl-openib.txt / error in device init
[ga00:150661] Set MCA parameter "orte_base_help_aggregate" to 0 to see all help / error messages
--------------------------------------------------------------------------
WARNING: There was an error initializing an OpenFabrics device.

  Local host:   ga00
  Local device: mlx5_0
--------------------------------------------------------------------------


           ************************************************************
           *        Program running with 32 parallel MPI-processes    *
           *              working on a common directory               *
           ************************************************************
-------------------------------------------------------------------------------
                                 ORCA GUESS
                   Start orbitals & Density for SCF / CASSCF
-------------------------------------------------------------------------------

------------
SCF SETTINGS
------------
Hamiltonian:
 Density Functional     Method          .... DFT(GTOs)
 Exchange Functional    Exchange        .... B88
   X-Alpha parameter    XAlpha          ....  0.666667
   Becke's b parameter  XBeta           ....  0.004200
 Correlation Functional Correlation     .... LYP
 LDA part of GGA corr.  LDAOpt          .... VWN-5
 Gradients option       PostSCFGGA      .... off
 Hybrid DFT is turned on
   Fraction HF Exchange ScalHFX         ....  0.200000
   Scaling of DF-GGA-X  ScalDFX         ....  0.720000
   Scaling of DF-GGA-C  ScalDFC         ....  0.810000
   Scaling of DF-LDA-C  ScalLDAC        ....  1.000000
   Perturbative correction              ....  0.000000
   NL short-range parameter             ....  4.800000
 RI-approximation to the Coulomb term is turned on
   Number of AuxJ basis functions       .... 411
   RIJ-COSX (HFX calculated with COS-X)).... on


General Settings:
 Integral files         IntName         .... input
 Hartree-Fock type      HFTyp           .... RHF
 Total Charge           Charge          ....    0
 Multiplicity           Mult            ....    1
 Number of Electrons    NEL             ....   62
 Basis Dimension        Dim             ....  204
 Nuclear Repulsion      ENuc            ....    380.5152583007 Eh

Convergence Acceleration:
 AO-DIIS                CNVDIIS         .... on
   Start iteration      DIISMaxIt       ....    12
   Startup error        DIISStart       ....  0.200000
   # of expansion vecs  DIISMaxEq       ....     5
   Bias factor          DIISBfac        ....   1.050
   Max. coefficient     DIISMaxC        ....  10.000
 MO-DIIS                CNVKDIIS        .... off
 Trust-Rad. Augm. Hess. CNVTRAH         .... auto
   Auto Start mean grad. ratio tolernc. ....  1.125000
   Auto Start start iteration           ....    50
   Auto Start num. interpolation iter.  ....    10
   Max. Number of Micro iterations      ....    24
   Max. Number of Macro iterations      .... Maxiter - #DIIS iter
   Number of Davidson start vectors     ....     2
   Converg. threshold    (grad. norm)   ....   1.000e-05
   Grad. Scal. Fac. for Micro threshold ....   0.100
   Minimum threshold for Micro iter.    ....   1.000e-02
   NR start threshold (gradient norm)   ....   1.000e-04
   Initial trust radius                 ....   0.400
   Minimum AH scaling param. (alpha)    ....   1.000
   Maximum AH scaling param. (alpha)    .... 1000.000
   Quad. conv. algorithm                .... NR
   White noise on init. David. guess    .... on
   Maximum white noise                  ....   0.010
   Pseudo random numbers                .... off
   Inactive MOs                         .... canonical
   Orbital update algorithm             .... Taylor
   Preconditioner                       .... Diag
   Full preconditioner red. dimension   ....   250
 SOSCF                  CNVSOSCF        .... on
   Start iteration      SOSCFMaxIt      ....   150
   Startup grad/error   SOSCFStart      ....  0.003300
   Hessian update       SOSCFHessUp     .... L-BFGS
 Level Shifting         CNVShift        .... on
   Level shift para.    LevelShift      ....    0.2500
   Turn off err/grad.   ShiftErr        ....    0.0010
 Zerner damping         CNVZerner       .... off
 Static damping         CNVDamp         .... on
   Fraction old density DampFac         ....    0.7000
   Max. Damping (<1)    DampMax         ....    0.9800
   Min. Damping (>=0)   DampMin         ....    0.0000
   Turn off err/grad.   DampErr         ....    0.1000

SCF Procedure:
 Maximum # iterations   MaxIter         ....   125
 SCF integral mode      SCFMode         .... Direct
   Integral package                     .... SHARK and LIBINT hybrid scheme
 Reset frequency        DirectResetFreq ....    20
 Integral Threshold     Thresh          ....  2.500e-11 Eh
 Primitive CutOff       TCut            ....  2.500e-12 Eh

Convergence Tolerance:
 Convergence Check Mode ConvCheckMode   .... Total+1el-Energy
 Convergence forced     ConvForced      .... 0
 Energy Change          TolE            ....  1.000e-08 Eh
 1-El. energy change                    ....  1.000e-05 Eh
 Orbital Gradient       TolG            ....  1.000e-05
 Orbital Rotation angle TolX            ....  1.000e-05
 DIIS Error             TolErr          ....  5.000e-07

------------------------------
INITIAL GUESS: MODEL POTENTIAL
------------------------------
Loading Hartree-Fock densities                     ... done
Calculating cut-offs                               ... done
Initializing the effective Hamiltonian             ... done
Setting up the integral package (SHARK)            ... done
Starting the Coulomb interaction                   ... done (   0.0 sec)
Making the grid                                    ... done (   0.1 sec)
Mapping shells                                     ... done
Starting the XC term evaluation                    ... done (   0.0 sec)
  promolecular density results
     # of electrons  =     61.998102983
     EX              =    -63.726427610
     EC              =     -2.221588091
     EX+EC           =    -65.948015701
Transforming the Hamiltonian                       ... done (   0.0 sec)
Diagonalizing the Hamiltonian                      ... done (   0.0 sec)
Back transforming the eigenvectors                 ... done (   0.0 sec)
Now organizing SCF variables                       ... done
                      ------------------
                      INITIAL GUESS DONE (   0.1 sec)
                      ------------------
             **** ENERGY FILE WAS UPDATED (input.en.tmp) ****
Finished Guess after   0.8 sec
Maximum memory used throughout the entire GUESS-calculation: 14.0 MB
[ga00:150811] 31 more processes have sent help message help-mpi-btl-openib.txt / error in device init
[ga00:150811] Set MCA parameter "orte_base_help_aggregate" to 0 to see all help / error messages
--------------------------------------------------------------------------
WARNING: There was an error initializing an OpenFabrics device.

  Local host:   ga00
  Local device: mlx5_0
--------------------------------------------------------------------------


           ************************************************************
           *        Program running with 32 parallel MPI-processes    *
           *              working on a common directory               *
           ************************************************************

-------------------------------------------------------------------------------------------
                                      ORCA LEAN-SCF
                              memory conserving SCF solver
-------------------------------------------------------------------------------------------

----------------------------------------D-I-I-S--------------------------------------------
Iteration    Energy (Eh)           Delta-E    RMSDP     MaxDP     DIISErr   Damp  Time(sec)
-------------------------------------------------------------------------------------------
               ***  Starting incremental Fock matrix formation  ***
    1    -703.9115125367203518     0.00e+00  3.38e-02  1.95e+00  3.91e-01  0.700   0.2
    2    -704.1532133780405047    -2.42e-01  2.03e-02  1.25e+00  1.12e-01  0.700   0.2
                               ***Turning on AO-DIIS***
    3    -704.2124178352672743    -5.92e-02  3.15e-03  1.80e-01  4.11e-02  0.700   0.2
    4    -704.2623520494006470    -4.99e-02  8.39e-03  3.63e-01  2.35e-02  0.000   0.2
    5    -704.3808584959068639    -1.19e-01  2.86e-03  1.90e-01  1.12e-02  0.000   0.2
                              *** Initializing SOSCF ***
---------------------------------------S-O-S-C-F--------------------------------------
Iteration    Energy (Eh)           Delta-E    RMSDP     MaxDP     MaxGrad    Time(sec)
--------------------------------------------------------------------------------------
    6    -704.3818155590066681    -9.57e-04  6.34e-04  3.79e-02  2.34e-03     0.2
               *** Restarting incremental Fock matrix formation ***
    7    -704.3818816616291087    -6.61e-05  5.39e-04  3.12e-02  9.93e-04     0.2
    8    -704.3818918500020345    -1.02e-05  1.54e-04  3.40e-03  1.04e-03     0.2
    9    -704.3819081473305914    -1.63e-05  1.82e-04  1.10e-02  3.37e-04     0.2
   10    -704.3819093010437200    -1.15e-06  9.20e-05  5.24e-03  1.46e-04     0.2
   11    -704.3819100675599429    -7.67e-07  3.95e-05  1.22e-03  8.86e-05     0.2
   12    -704.3819101376499248    -7.01e-08  1.62e-05  7.06e-04  8.26e-05     0.2
   13    -704.3819104382488376    -3.01e-07  1.67e-05  9.07e-04  1.88e-05     0.2
   14    -704.3819104430311882    -4.78e-09  1.24e-05  6.29e-04  1.72e-05     0.2
                 **** Energy Check signals convergence ****

               *****************************************************
               *                     SUCCESS                       *
               *           SCF CONVERGED AFTER  14 CYCLES          *
               *****************************************************

Recomputing exchange energy using gridx3       ... done (    0.259 sec)
Old exchange energy                            :    -12.839565844 Eh
New exchange energy                            :    -12.839590045 Eh
Exchange energy change after final integration :     -0.000024200 Eh
Total energy after final integration           :   -704.381934643 Eh
             **** ENERGY FILE WAS UPDATED (input.en.tmp) ****

----------------
TOTAL SCF ENERGY
----------------

Total Energy       :       -704.38193464314429 Eh          -19167.20688 eV

Components:
Nuclear Repulsion  :        380.51525830069488 Eh           10354.34658 eV
Electronic Energy  :      -1084.89716874372607 Eh          -29521.55281 eV
One Electron Energy:      -1720.93798612014689 Eh          -46829.10335 eV
Two Electron Energy:        636.04081737642070 Eh           17307.55054 eV

Virial components:
Potential Energy   :      -1406.99621613297882 Eh          -38286.31348 eV
Kinetic Energy     :        702.61428148983453 Eh           19119.10660 eV
Virial Ratio       :          2.00251582297696

DFT components:
N(Alpha)           :       30.999960887296 electrons
N(Beta)            :       30.999960887296 electrons
N(Total)           :       61.999921774592 electrons
E(X)               :      -51.095654016643 Eh       
E(C)               :       -2.618224042403 Eh       
E(XC)              :      -53.713878059046 Eh       

---------------
SCF CONVERGENCE
---------------

  Last Energy change         ...    4.7824e-09  Tolerance :   1.0000e-08
  Last MAX-Density change    ...    6.2895e-04  Tolerance :   1.0000e-07
  Last RMS-Density change    ...    1.2370e-05  Tolerance :   5.0000e-09
  Last DIIS Error            ...    2.3369e-03  Tolerance :   5.0000e-07
  Last Orbital Gradient      ...    1.7204e-05  Tolerance :   1.0000e-05
  Last Orbital Rotation      ...    2.6921e-05  Tolerance :   1.0000e-05


----------------
ORBITAL ENERGIES
----------------

  NO   OCC          E(Eh)            E(eV) 
   0   2.0000     -89.054501     -2423.2962 
   1   2.0000     -19.092469      -519.5325 
   2   2.0000     -19.092392      -519.5304 
   3   2.0000     -10.242978      -278.7256 
   4   2.0000     -10.242617      -278.7158 
   5   2.0000     -10.225452      -278.2487 
   6   2.0000     -10.224564      -278.2245 
   7   2.0000      -8.118120      -220.9053 
   8   2.0000      -6.080261      -165.4523 
   9   2.0000      -6.080093      -165.4478 
  10   2.0000      -6.079604      -165.4344 
  11   2.0000      -1.070637       -29.1335 
  12   2.0000      -0.940219       -25.5847 
  13   2.0000      -0.837299       -22.7841 
  14   2.0000      -0.824984       -22.4489 
  15   2.0000      -0.716861       -19.5068 
  16   2.0000      -0.642685       -17.4884 
  17   2.0000      -0.582068       -15.8389 
  18   2.0000      -0.546507       -14.8712 
  19   2.0000      -0.500381       -13.6161 
  20   2.0000      -0.491526       -13.3751 
  21   2.0000      -0.470072       -12.7913 
  22   2.0000      -0.429157       -11.6780 
  23   2.0000      -0.424804       -11.5595 
  24   2.0000      -0.412773       -11.2321 
  25   2.0000      -0.339795        -9.2463 
  26   2.0000      -0.335856        -9.1391 
  27   2.0000      -0.316031        -8.5996 
  28   2.0000      -0.284250        -7.7348 
  29   2.0000      -0.282093        -7.6761 
  30   2.0000      -0.252752        -6.8777 
  31   0.0000      -0.091398        -2.4871 
  32   0.0000      -0.050036        -1.3616 
  33   0.0000      -0.019960        -0.5431 
  34   0.0000      -0.014412        -0.3922 
  35   0.0000      -0.003575        -0.0973 
  36   0.0000       0.006691         0.1821 
  37   0.0000       0.011510         0.3132 
  38   0.0000       0.025028         0.6810 
  39   0.0000       0.031288         0.8514 
  40   0.0000       0.052616         1.4318 
  41   0.0000       0.054512         1.4833 
*Only the first 10 virtual orbitals were printed.

                    ********************************
                    * MULLIKEN POPULATION ANALYSIS *
                    ********************************

-----------------------
MULLIKEN ATOMIC CHARGES
-----------------------
   0 H :    0.208488
   1 O :   -0.307686
   2 C :   -0.277464
   3 H :    0.147240
   4 H :    0.251371
   5 S :   -0.186729
   6 C :    0.066144
   7 C :    0.061352
   8 O :   -0.327832
   9 H :    0.259469
  10 C :   -0.253524
  11 H :    0.148551
  12 H :    0.210621
Sum of atomic charges:   -0.0000000

--------------------------------
MULLIKEN REDUCED ORBITAL CHARGES
--------------------------------
  0 H s       :     0.765696  s :     0.765696
      pz      :     0.014141  p :     0.025816
      px      :     0.006741
      py      :     0.004934

  1 O s       :     3.813698  s :     3.813698
      pz      :     1.226829  p :     4.481273
      px      :     1.694914
      py      :     1.559530
      dz2     :     0.005321  d :     0.012714
      dxz     :     0.002480
      dyz     :     0.003920
      dx2y2   :     0.000549
      dxy     :     0.000444

  2 C s       :     3.319244  s :     3.319244
      pz      :     1.005331  p :     2.916429
      px      :     1.012028
      py      :     0.899070
      dz2     :     0.013265  d :     0.041790
      dxz     :     0.010453
      dyz     :     0.006150
      dx2y2   :     0.005975
      dxy     :     0.005949

  3 H s       :     0.827537  s :     0.827537
      pz      :     0.005196  p :     0.025223
      px      :     0.013189
      py      :     0.006839

  4 H s       :     0.722782  s :     0.722782
      pz      :     0.009703  p :     0.025847
      px      :     0.005773
      py      :     0.010370

  5 S s       :     6.070608  s :     6.070608
      pz      :     3.222277  p :     9.643618
      px      :     3.358991
      py      :     3.062350
      dz2     :     0.119128  d :     0.472504
      dxz     :     0.077715
      dyz     :     0.107556
      dx2y2   :     0.059997
      dxy     :     0.108108

  6 C s       :     2.954424  s :     2.954424
      pz      :     1.053709  p :     2.930129
      px      :     0.871975
      py      :     1.004445
      dz2     :     0.017457  d :     0.049303
      dxz     :     0.009429
      dyz     :     0.006946
      dx2y2   :     0.008253
      dxy     :     0.007217

  7 C s       :     2.956822  s :     2.956822
      pz      :     1.039720  p :     2.932546
      px      :     0.880451
      py      :     1.012375
      dz2     :     0.012729  d :     0.049281
      dxz     :     0.009527
      dyz     :     0.010643
      dx2y2   :     0.009654
      dxy     :     0.006728

  8 O s       :     3.824505  s :     3.824505
      pz      :     1.662335  p :     4.490622
      px      :     1.698329
      py      :     1.129958
      dz2     :     0.001591  d :     0.012705
      dxz     :     0.000537
      dyz     :     0.004212
      dx2y2   :     0.003979
      dxy     :     0.002385

  9 H s       :     0.714686  s :     0.714686
      pz      :     0.013933  p :     0.025846
      px      :     0.006203
      py      :     0.005710

 10 C s       :     3.300856  s :     3.300856
      pz      :     0.940710  p :     2.910835
      px      :     1.006151
      py      :     0.963974
      dz2     :     0.010377  d :     0.041833
      dxz     :     0.008977
      dyz     :     0.009758
      dx2y2   :     0.005512
      dxy     :     0.007209

 11 H s       :     0.826224  s :     0.826224
      pz      :     0.005083  p :     0.025224
      px      :     0.013061
      py      :     0.007080

 12 H s       :     0.763467  s :     0.763467
      pz      :     0.009197  p :     0.025912
      px      :     0.006380
      py      :     0.010334



                     *******************************
                     * LOEWDIN POPULATION ANALYSIS *
                     *******************************

----------------------
LOEWDIN ATOMIC CHARGES
----------------------
   0 H :    0.063489
   1 O :   -0.647634
   2 C :    0.018164
   3 H :    0.053286
   4 H :    0.066338
   5 S :    1.340346
   6 C :   -0.223310
   7 C :   -0.224503
   8 O :   -0.651120
   9 H :    0.067897
  10 C :    0.018890
  11 H :    0.053330
  12 H :    0.064827

-------------------------------
LOEWDIN REDUCED ORBITAL CHARGES
-------------------------------
  0 H s       :     0.863325  s :     0.863325
      pz      :     0.042657  p :     0.073186
      px      :     0.018863
      py      :     0.011666

  1 O s       :     3.728747  s :     3.728747
      pz      :     1.472670  p :     4.898148
      px      :     1.788302
      py      :     1.637176
      dz2     :     0.009806  d :     0.020739
      dxz     :     0.003189
      dyz     :     0.006420
      dx2y2   :     0.000796
      dxy     :     0.000528

  2 C s       :     2.828681  s :     2.828681
      pz      :     1.093202  p :     3.058933
      px      :     1.049443
      py      :     0.916288
      dz2     :     0.029216  d :     0.094222
      dxz     :     0.025074
      dyz     :     0.015364
      dx2y2   :     0.011369
      dxy     :     0.013200

  3 H s       :     0.875437  s :     0.875437
      pz      :     0.014187  p :     0.071277
      px      :     0.039637
      py      :     0.017452

  4 H s       :     0.856578  s :     0.856578
      pz      :     0.027680  p :     0.077083
      px      :     0.018249
      py      :     0.031154

  5 S s       :     4.993504  s :     4.993504
      pz      :     3.015671  p :     9.103870
      px      :     3.069592
      py      :     3.018607
      dz2     :     0.145768  d :     0.562280
      dxz     :     0.086803
      dyz     :     0.130265
      dx2y2   :     0.071505
      dxy     :     0.127938

  6 C s       :     2.885832  s :     2.885832
      pz      :     1.131319  p :     3.220495
      px      :     1.029884
      py      :     1.059292
      dz2     :     0.036483  d :     0.116983
      dxz     :     0.026274
      dyz     :     0.015939
      dx2y2   :     0.017961
      dxy     :     0.020326

  7 C s       :     2.885308  s :     2.885308
      pz      :     1.131276  p :     3.222262
      px      :     1.035300
      py      :     1.055686
      dz2     :     0.027636  d :     0.116933
      dxz     :     0.027791
      dyz     :     0.020800
      dx2y2   :     0.022311
      dxy     :     0.018395

  8 O s       :     3.728476  s :     3.728476
      pz      :     1.735245  p :     4.901935
      px      :     1.789690
      py      :     1.377000
      dz2     :     0.002257  d :     0.020708
      dxz     :     0.000746
      dyz     :     0.007394
      dx2y2   :     0.007351
      dxy     :     0.002961

  9 H s       :     0.855018  s :     0.855018
      pz      :     0.042650  p :     0.077085
      px      :     0.019700
      py      :     0.014735

 10 C s       :     2.828568  s :     2.828568
      pz      :     1.051901  p :     3.058360
      px      :     1.049652
      py      :     0.956807
      dz2     :     0.023482  d :     0.094182
      dxz     :     0.024570
      dyz     :     0.019887
      dx2y2   :     0.012535
      dxy     :     0.013708

 11 H s       :     0.875426  s :     0.875426
      pz      :     0.012526  p :     0.071244
      px      :     0.039020
      py      :     0.019698

 12 H s       :     0.861698  s :     0.861698
      pz      :     0.026782  p :     0.073475
      px      :     0.017342
      py      :     0.029351



                      *****************************
                      * MAYER POPULATION ANALYSIS *
                      *****************************

  NA   - Mulliken gross atomic population
  ZA   - Total nuclear charge
  QA   - Mulliken gross atomic charge
  VA   - Mayer's total valence
  BVA  - Mayer's bonded valence
  FA   - Mayer's free valence

  ATOM       NA         ZA         QA         VA         BVA        FA
  0 H      0.7915     1.0000     0.2085     0.9185     0.9185    -0.0000
  1 O      8.3077     8.0000    -0.3077     1.5895     1.5895    -0.0000
  2 C      6.2775     6.0000    -0.2775     3.9938     3.9938    -0.0000
  3 H      0.8528     1.0000     0.1472     0.9772     0.9772    -0.0000
  4 H      0.7486     1.0000     0.2514     0.8732     0.8732     0.0000
  5 S     16.1867    16.0000    -0.1867     5.7971     5.7971     0.0000
  6 C      5.9339     6.0000     0.0661     2.6615     2.6615    -0.0000
  7 C      5.9386     6.0000     0.0614     2.6945     2.6945    -0.0000
  8 O      8.3278     8.0000    -0.3278     1.5914     1.5914    -0.0000
  9 H      0.7405     1.0000     0.2595     0.8697     0.8697    -0.0000
 10 C      6.2535     6.0000    -0.2535     3.9744     3.9744    -0.0000
 11 H      0.8514     1.0000     0.1486     0.9743     0.9743    -0.0000
 12 H      0.7894     1.0000     0.2106     0.9208     0.9208    -0.0000

  Mayer bond orders larger than 0.100000
B(  0-H ,  2-C ) :   0.9264 B(  1-O ,  2-C ) :   0.1465 B(  1-O ,  5-S ) :   2.0382 
B(  1-O ,  6-C ) :  -0.3040 B(  1-O ,  7-C ) :  -0.1455 B(  1-O ,  8-O ) :  -0.1687 
B(  2-C ,  3-H ) :   0.9401 B(  2-C ,  5-S ) :   0.1351 B(  2-C ,  6-C ) :   1.7886 
B(  4-H ,  7-C ) :   0.8548 B(  5-S ,  6-C ) :   0.6898 B(  5-S ,  7-C ) :   0.6934 
B(  5-S ,  8-O ) :   1.9984 B(  5-S , 10-C ) :   0.1107 B(  6-C ,  7-C ) :  -0.2541 
B(  6-C ,  8-O ) :  -0.1204 B(  6-C ,  9-H ) :   0.8602 B(  7-C ,  8-O ) :  -0.2773 
B(  7-C , 10-C ) :   1.8183 B(  8-O , 10-C ) :   0.1326 B( 10-C , 11-H ) :   0.9375 
B( 10-C , 12-H ) :   0.9211 

-------
TIMINGS
-------

Total SCF time: 0 days 0 hours 0 min 3 sec 

Total time                  ....       3.797 sec
Sum of individual times     ....       3.766 sec  ( 99.2%)

SCF preparation             ....       0.780 sec  ( 20.5%)
Fock matrix formation       ....       2.677 sec  ( 70.5%)
  Startup                   ....       0.012 sec  (  0.5% of F)
  Split-RI-J                ....       0.286 sec  ( 10.7% of F)
  Chain of spheres X        ....       1.801 sec  ( 67.3% of F)
  XC integration            ....       0.516 sec  ( 19.3% of F)
    XC Preparation          ....       0.000 sec  (  0.0% of XC)
    Basis function eval.    ....       0.105 sec  ( 20.4% of XC)
    Density eval.           ....       0.090 sec  ( 17.4% of XC)
    XC-Functional eval.     ....       0.018 sec  (  3.4% of XC)
    XC-Potential eval.      ....       0.105 sec  ( 20.4% of XC)
Diagonalization             ....       0.000 sec  (  0.0%)
Density matrix formation    ....       0.035 sec  (  0.9%)
Total Energy calculation    ....       0.026 sec  (  0.7%)
Population analysis         ....       0.013 sec  (  0.3%)
Orbital Transformation      ....       0.023 sec  (  0.6%)
Orbital Orthonormalization  ....       0.000 sec  (  0.0%)
DIIS solution               ....       0.119 sec  (  3.1%)
SOSCF solution              ....       0.094 sec  (  2.5%)
Finished LeanSCF after   3.8 sec

Maximum memory used throughout the entire LEANSCF-calculation: 22.1 MB
[ga00:150953] 31 more processes have sent help message help-mpi-btl-openib.txt / error in device init
[ga00:150953] Set MCA parameter "orte_base_help_aggregate" to 0 to see all help / error messages


-------------------------------------------------------------------------------
                          DFT DISPERSION CORRECTION                            
                                                                               
                              DFTD3 V3.1  Rev 1                                
                          USING Becke-Johnson damping                          
-------------------------------------------------------------------------------
The B3LYP functional is recognized
Active option DFTDOPT                   ...         4   

molecular C6(AA) [au] = 2394.569631 


            DFT-D V3
 parameters
 s6 scaling factor         :     1.0000 
 a1 scaling factor         :     0.3981 
 s8 scaling factor         :     1.9889 
 a2 scaling factor         :     4.4211 
 ad hoc parameters k1-k3   :    16.0000     1.3333    -4.0000 

 Edisp/kcal,au: -13.607049025108  -0.021684210575 
 E6   /kcal   :  -6.095690773 
 E8   /kcal   :  -7.511358252 
 % E8         :  55.201963616 

-------------------------   ----------------
Dispersion correction           -0.021684211
-------------------------   ----------------


-------------------------   --------------------
FINAL SINGLE POINT ENERGY      -704.403618853720
-------------------------   --------------------

--------------------------------------------------------------------------
WARNING: There was an error initializing an OpenFabrics device.

  Local host:   ga00
  Local device: mlx5_0
--------------------------------------------------------------------------


           ************************************************************
           *        Program running with 32 parallel MPI-processes    *
           *              working on a common directory               *
           ************************************************************
------------------------------------------------------------------------------
                         ORCA SCF GRADIENT CALCULATION
------------------------------------------------------------------------------

Nuc. rep. gradient        (SHARK) ... done (  0.0 sec)
HCore & Overlap gradient  (SHARK) ... done (  0.0 sec)
Split-RIJ-J gradient      (SHARK) ... done (  0.1 sec)
COSX-gradient                     ... done (  1.1 sec)
XC gradient                       ... done (  0.2 sec)
Dispersion correction             ... done (  0.1 sec)

-------------------
DISPERSION GRADIENT
-------------------

   1   H   :    0.000207764   -0.000165524   -0.000196596
   2   O   :   -0.000067667    0.000338723   -0.000417999
   3   C   :    0.000529610   -0.000305275   -0.000122537
   4   H   :    0.000194189   -0.000116279   -0.000040636
   5   H   :   -0.000239814   -0.000187426   -0.000081130
   6   S   :    0.000004628    0.000363372   -0.000142295
   7   C   :    0.000553827   -0.000120118    0.000057186
   8   C   :   -0.000558190   -0.000131856    0.000053875
   9   O   :    0.000070366    0.000523227    0.000066181
  10   H   :    0.000239878   -0.000059081    0.000185556
  11   C   :   -0.000525946   -0.000121344    0.000291992
  12   H   :   -0.000195685   -0.000051019    0.000106312
  13   H   :   -0.000212960    0.000032600    0.000240089

Difference to translation invariance:
           :   -0.0000000000   -0.0000000000   -0.0000000000

Difference to rotation invariance:
           :   -0.0000000000    0.0000000000   -0.0000000000

Norm of the Dispersion gradient    ...    0.0016321958
RMS gradient                       ...    0.0002613605
MAX gradient                       ...    0.0005581896

------------------
CARTESIAN GRADIENT
------------------

   1   H   :   -0.001001173    0.000833666    0.000028372
   2   O   :    0.001335299    0.062747291   -0.017919893
   3   C   :    0.012165630   -0.004197226    0.000893744
   4   H   :   -0.000958514   -0.003776802    0.001229195
   5   H   :   -0.010079432   -0.001515857    0.005513002
   6   S   :    0.001349104   -0.152560051    0.060974230
   7   C   :   -0.003669618    0.028809820   -0.005401501
   8   C   :    0.003112290    0.024492555   -0.015096555
   9   O   :   -0.001729123    0.057548189   -0.030507650
  10   H   :    0.010479600   -0.005321229   -0.003212461
  11   C   :   -0.012322429   -0.004371788    0.001455438
  12   H   :    0.000945883   -0.003344573    0.002479730
  13   H   :    0.000372482    0.000656005   -0.000435651

Difference to translation invariance:
           :   -0.0000000000    0.0000000000   -0.0000000000

Difference to rotation invariance:
           :    0.0000432279   -0.0000016989    0.0000507964

Norm of the Cartesian gradient     ...    0.1946011706
RMS gradient                       ...    0.0311611262
MAX gradient                       ...    0.1525600507

-------
TIMINGS
-------

Total SCF gradient time     ....        1.503 sec

Densities                   ....       0.001 sec  (  0.1%)
One electron gradient       ....       0.020 sec  (  1.3%)
RI-J Coulomb gradient       ....       0.105 sec  (  7.0%)
COSX gradient               ....       1.132 sec  ( 75.3%)
XC gradient                 ....       0.187 sec  ( 12.4%)

Maximum memory used throughout the entire SCFGRAD-calculation: 32.1 MB
[ga00:151238] 31 more processes have sent help message help-mpi-btl-openib.txt / error in device init
[ga00:151238] Set MCA parameter "orte_base_help_aggregate" to 0 to see all help / error messages
------------------------------------------------------------------------------
                         ORCA GEOMETRY RELAXATION STEP
------------------------------------------------------------------------------

Reading the OPT-File                    .... done
Getting information on internals        .... done
Copying old internal coords+grads       .... done
Making the new internal coordinates     .... (2022 redundants) done
Validating the new internal coordinates .... (2022 redundants) done
Calculating the B-matrix                .... done
Calculating the G,G- and P matrices     .... done
Transforming gradient to internals      .... done
Projecting the internal gradient        .... done
Number of atoms                         ....  13
Number of internal coordinates          ....  48
Current Energy                          ....  -704.403618854 Eh
Current gradient norm                   ....     0.194601171 Eh/bohr
Maximum allowed component of the step   ....  0.300
Current trust radius                    ....  0.300
Evaluating the initial hessian          ....  (Almloef) done
Projecting the Hessian                  .... done
Forming the augmented Hessian           .... done
Diagonalizing the augmented Hessian     .... done
Last element of RFO vector              ....  0.921409543
Lowest eigenvalues of augmented Hessian:
 -0.051925463  0.004024867  0.004176419  0.021524388  0.021632340
Length of the computed step             ....  0.421737454
Warning: the length of the step is outside the trust region - taking restricted step instead
The input lambda is                     ....     0.003019
   iter:   5  x=   -0.006696  g=  100.813686 f(x)=     0.483942
   iter:  10  x=   -0.162959  g=    0.471086 f(x)=     0.002963
The output lambda is                    ....    -0.163121 (14 iterations)
The final length of the internal step   ....  0.300000000
Converting the step to Cartesian space:
 Initial RMS(Int)=    0.0433012702
Transforming coordinates:
 Iter   0:  RMS(Cart)=    0.0742716464 RMS(Int)=    1.8068056904
 Iter   5:  RMS(Cart)=    0.0000003419 RMS(Int)=    0.0000002672
done
Storing new coordinates                 .... done

                                .--------------------.
          ----------------------|Geometry convergence|-------------------------
          Item                value                   Tolerance       Converged
          ---------------------------------------------------------------------
          RMS gradient        0.0189646130            0.0001000000      NO
          MAX gradient        0.0658367639            0.0003000000      NO
          RMS step            0.0433012702            0.0020000000      NO
          MAX step            0.1659264362            0.0040000000      NO
          ........................................................
          Max(Bonds)      0.0190      Max(Angles)    9.51
          Max(Dihed)        6.37      Max(Improp)    0.00
          ---------------------------------------------------------------------

The optimization has not yet converged - more geometry cycles are needed


    ---------------------------------------------------------------------------
                         Redundant Internal Coordinates
                            (Angstroem and degrees)

        Definition                    Value    dE/dq     Step     New-Value
    ----------------------------------------------------------------------------
     1. B(C   2,H   0)                1.0851  0.000292 -0.0003    1.0848   
     2. B(H   3,C   2)                1.0850  0.000923 -0.0009    1.0841   
     3. B(S   5,O   1)                1.5364  0.037263 -0.0189    1.5175   
     4. B(C   6,S   5)                1.7951  0.007324 -0.0071    1.7880   
     5. B(C   6,C   2)                1.3337  0.006922 -0.0039    1.3298   
     6. B(C   7,S   5)                1.7961  0.008048 -0.0079    1.7882   
     7. B(C   7,H   4)                1.0853  0.000894 -0.0009    1.0844   
     8. B(O   8,S   5)                1.5368  0.037455 -0.0190    1.5178   
     9. B(H   9,C   6)                1.0851  0.000904 -0.0009    1.0842   
    10. B(C  10,C   7)                1.3333  0.007215 -0.0041    1.3292   
    11. B(H  11,C  10)                1.0852  0.001017 -0.0010    1.0842   
    12. B(H  12,C  10)                1.0852  0.000265 -0.0003    1.0849   
    13. A(H   0,C   2,H   3)          119.01  0.000862   -0.10    118.91   
    14. A(H   3,C   2,C   6)          120.04  0.000829   -0.08    119.96   
    15. A(H   0,C   2,C   6)          120.94 -0.001687    0.19    121.13   
    16. A(C   7,S   5,O   8)          107.84  0.001228   -0.20    107.64   
    17. A(O   1,S   5,C   7)          107.03 -0.004179    0.33    107.36   
    18. A(C   6,S   5,C   7)          125.79  0.043914   -5.85    119.94   
    19. A(C   6,S   5,O   8)          106.96  0.004498   -0.50    106.46   
    20. A(O   1,S   5,O   8)           98.07 -0.065837    9.51    107.58   
    21. A(O   1,S   5,C   6)          107.69 -0.007819    0.67    108.36   
    22. A(S   5,C   6,H   9)          119.09  0.008694   -1.00    118.09   
    23. A(C   2,C   6,H   9)          119.72 -0.016174    1.73    121.45   
    24. A(C   2,C   6,S   5)          121.19  0.007448   -0.73    120.47   
    25. A(S   5,C   7,C  10)          121.43  0.009765   -0.96    120.47   
    26. A(H   4,C   7,C  10)          119.66 -0.016740    1.78    121.44   
    27. A(H   4,C   7,S   5)          118.91  0.006944   -0.82    118.09   
    28. A(H  11,C  10,H  12)          118.92  0.000232   -0.03    118.89   
    29. A(C   7,C  10,H  12)          121.05 -0.001077    0.12    121.17   
    30. A(C   7,C  10,H  11)          120.02  0.000848   -0.09    119.93   
    31. D(H   9,C   6,C   2,H   0)    179.93 -0.006375    0.95    180.88   
    32. D(H   9,C   6,C   2,H   3)     -0.13 -0.003066    0.02     -0.10   
    33. D(H   9,C   6,S   5,C   7)    -85.44  0.007582   -1.25    -86.69   
    34. D(C   2,C   6,S   5,O   8)   -137.66  0.043182   -5.68   -143.34   
    35. D(H   9,C   6,S   5,O   1)    147.05 -0.018838    3.05    150.10   
    36. D(C   2,C   6,S   5,C   7)     94.40 -0.005575    0.76     95.16   
    37. D(S   5,C   6,C   2,H   3)   -179.96  0.010133   -1.99   -181.96   
    38. D(S   5,C   6,C   2,H   0)      0.09  0.006824   -1.07     -0.98   
    39. D(C   2,C   6,S   5,O   1)    -33.11 -0.031995    5.06    -28.05   
    40. D(C  10,C   7,S   5,C   6)    100.76 -0.008869    1.92    102.69   
    41. D(C  10,C   7,S   5,O   1)   -131.46  0.015728   -2.19   -133.65   
    42. D(H   4,C   7,S   5,O   8)    153.33 -0.045675    6.37    159.70   
    43. D(H   4,C   7,S   5,C   6)    -79.09  0.004981   -0.26    -79.35   
    44. D(H   4,C   7,S   5,O   1)     48.69  0.029578   -4.38     44.31   
    45. D(H  11,C  10,C   7,H   4)     -0.12 -0.003288    0.08     -0.04   
    46. D(H  12,C  10,C   7,S   5)      0.10  0.007427   -1.23     -1.13   
    47. D(H  12,C  10,C   7,H   4)    179.95 -0.006490    0.97    180.92   
    48. D(H  11,C  10,C   7,S   5)   -179.97  0.010629   -2.12   -182.09   
    ----------------------------------------------------------------------------

Geometry step timings:
Preparation and reading OPT file:      0.000 s ( 9.399 %)
Internal coordinates            :      0.000 s ( 2.049 %)
B/P matrices and projection     :      0.000 s (23.110 %)
Hessian update/contruction      :      0.000 s ( 6.996 %)
Making the step                 :      0.000 s (30.318 %)
Converting the step to Cartesian:      0.000 s ( 3.746 %)
Storing new data                :      0.000 s ( 1.201 %)
Checking convergence            :      0.000 s ( 0.141 %)
Final printing                  :      0.000 s (22.473 %)
Total time                      :      0.001 s
--------------------------------------------------------------------------
WARNING: There was an error initializing an OpenFabrics device.

  Local host:   ga00
  Local device: mlx5_0
--------------------------------------------------------------------------
[ga00:151401] 31 more processes have sent help message help-mpi-btl-openib.txt / error in device init
[ga00:151401] Set MCA parameter "orte_base_help_aggregate" to 0 to see all help / error messages

Time for energy+gradient        :      9.948 s
Time for complete geometry iter :     11.086 s

         *************************************************************
         *                GEOMETRY OPTIMIZATION CYCLE   2            *
         *************************************************************
---------------------------------
CARTESIAN COORDINATES (ANGSTROEM)
---------------------------------
  H      1.679008   -1.344434   -2.347822
  O     -0.132582    0.585083   -2.192495
  C      2.085092   -1.275984   -1.344215
  H      3.043517   -1.737057   -1.134155
  H     -1.993279   -1.406350   -1.116038
  S     -0.119050    0.186212   -0.728435
  C      1.437237   -0.623632   -0.383484
  C     -1.654815   -0.668022   -0.397547
  O     -0.123897    1.462619    0.092762
  H      1.845088   -0.540042    0.617561
  C     -2.373047   -0.369725    0.680391
  H     -3.319606   -0.868760    0.854880
  H     -2.037529    0.380394    1.388766

----------------------------
CARTESIAN COORDINATES (A.U.)
----------------------------
  NO LB      ZA    FRAG     MASS         X           Y           Z
   0 H     1.0000    0     1.008    3.172866   -2.540612   -4.436740
   1 O     8.0000    0    15.999   -0.250544    1.105647   -4.143215
   2 C     6.0000    0    12.011    3.940253   -2.411261   -2.540198
   3 H     1.0000    0     1.008    5.751413   -3.282563   -2.143242
   4 H     1.0000    0     1.008   -3.766751   -2.657616   -2.109005
   5 S    16.0000    0    32.060   -0.224971    0.351890   -1.376543
   6 C     6.0000    0    12.011    2.715984   -1.178493   -0.724680
   7 C     6.0000    0    12.011   -3.127146   -1.262379   -0.751254
   8 O     8.0000    0    15.999   -0.234132    2.763950    0.175294
   9 H     1.0000    0     1.008    3.486711   -1.020532    1.167021
  10 C     6.0000    0    12.011   -4.484408   -0.698678    1.285752
  11 H     1.0000    0     1.008   -6.273146   -1.641719    1.615490
  12 H     1.0000    0     1.008   -3.850373    0.718840    2.624388

--------------------------------
INTERNAL COORDINATES (ANGSTROEM)
--------------------------------
 H      0   0   0     0.000000000000     0.00000000     0.00000000
 O      1   0   0     2.651230677205     0.00000000     0.00000000
 C      1   2   0     1.084811327138    98.95515800     0.00000000
 H      3   1   2     1.084108509937   118.90513179   196.98777216
 H      2   1   3     2.930316762737    87.75387338   273.08816426
 S      2   1   3     1.517482060521    81.90196044   331.24946234
 C      3   1   2     1.329768516361   121.12977366    16.01830303
 C      5   2   1     1.084395984711    65.32263146   109.60809835
 O      6   2   1     1.517762527638   107.51342816   136.80669361
 H      7   3   1     1.084168164104   121.44191200   180.88208182
 C      8   5   2     1.329205803325   121.43065340   155.62282962
 H     11   8   5     1.084184966692   119.93228447   359.96391440
 H     11   8   5     1.084917186661   121.16880793   180.92769476

---------------------------
INTERNAL COORDINATES (A.U.)
---------------------------
 H      0   0   0     0.000000000000     0.00000000     0.00000000
 O      1   0   0     5.010099897768     0.00000000     0.00000000
 C      1   2   0     2.049996315267    98.95515800     0.00000000
 H      3   1   2     2.048668183234   118.90513179   196.98777216
 H      2   1   3     5.537496167212    87.75387338   273.08816426
 S      2   1   3     2.867625507523    81.90196044   331.24946234
 C      3   1   2     2.512898317433   121.12977366    16.01830303
 C      5   2   1     2.049211431828    65.32263146   109.60809835
 O      6   2   1     2.868155513564   107.51342816   136.80669361
 H      7   3   1     2.048780913272   121.44191200   180.88208182
 C      8   5   2     2.511834943903   121.43065340   155.62282962
 H     11   8   5     2.048812665563   119.93228447   359.96391440
 H     11   8   5     2.050196360774   121.16880793   180.92769476

--------------------------------------------------------------------------
WARNING: There was an error initializing an OpenFabrics device.

  Local host:   ga00
  Local device: mlx5_0
--------------------------------------------------------------------------


           ************************************************************
           *        Program running with 32 parallel MPI-processes    *
           *              working on a common directory               *
           ************************************************************
------------------------------------------------------------------------------
                   ___                                                        
                  /   \      - P O W E R E D   B Y -                         
                 /     \                                                     
                 |  |  |   _    _      __       _____    __    __             
                 |  |  |  | |  | |    /  \     |  _  \  |  |  /  |          
                  \  \/   | |  | |   /    \    | | | |  |  | /  /          
                 / \  \   | |__| |  /  /\  \   | |_| |  |  |/  /          
                |  |  |   |  __  | /  /__\  \  |    /   |      \           
                |  |  |   | |  | | |   __   |  |    \   |  |\   \          
                \     /   | |  | | |  |  |  |  | |\  \  |  | \   \       
                 \___/    |_|  |_| |__|  |__|  |_| \__\ |__|  \__/        
                                                                              
                      - O R C A' S   B I G   F R I E N D -                    
                                      &                                       
                       - I N T E G R A L  F E E D E R -                       
                                                                              
 v1 FN, 2020, v2 2021, v3 2022-2024                                           
------------------------------------------------------------------------------


[...]
      dxz     :     0.008285
      dyz     :     0.007308
      dx2y2   :     0.003946
      dxy     :     0.009523

  7 C s       :     2.974186  s :     2.974186
      pz      :     1.050424  p :     3.059705
      px      :     0.968342
      py      :     1.040939
      dz2     :     0.010578  d :     0.049486
      dxz     :     0.007332
      dyz     :     0.013424
      dx2y2   :     0.007680
      dxy     :     0.010472

  8 O s       :     3.755973  s :     3.755973
      pz      :     1.465154  p :     4.482722
      px      :     1.692807
      py      :     1.324761
      dz2     :     0.002717  d :     0.015735
      dxz     :     0.001448
      dyz     :     0.005687
      dx2y2   :     0.003318
      dxy     :     0.002565

  9 H s       :     0.727651  s :     0.727651
      pz      :     0.015161  p :     0.025604
      px      :     0.005013
      py      :     0.005430

 10 C s       :     3.308442  s :     3.308442
      pz      :     0.959091  p :     2.951900
      px      :     0.978212
      py      :     1.014598
      dz2     :     0.009690  d :     0.042627
      dxz     :     0.007982
      dyz     :     0.009935
      dx2y2   :     0.006935
      dxy     :     0.008086

 11 H s       :     0.838321  s :     0.838321
      pz      :     0.005787  p :     0.025257
      px      :     0.011609
      py      :     0.007861

 12 H s       :     0.772844  s :     0.772844
      pz      :     0.007761  p :     0.026241
      px      :     0.005733
      py      :     0.012747



                     *******************************
                     * LOEWDIN POPULATION ANALYSIS *
                     *******************************

----------------------
LOEWDIN ATOMIC CHARGES
----------------------
   0 H :    0.064843
   1 O :   -0.619149
   2 C :    0.001192
   3 H :    0.049298
   4 H :    0.064543
   5 S :    1.350441
   6 C :   -0.235952
   7 C :   -0.235882
   8 O :   -0.619238
   9 H :    0.064559
  10 C :    0.001167
  11 H :    0.049296
  12 H :    0.064881

-------------------------------
LOEWDIN REDUCED ORBITAL CHARGES
-------------------------------
  0 H s       :     0.861381  s :     0.861381
      pz      :     0.045113  p :     0.073776
      px      :     0.014653
      py      :     0.014010

  1 O s       :     3.685905  s :     3.685905
      pz      :     1.428466  p :     4.908120
      px      :     1.753920
      py      :     1.725734
      dz2     :     0.014783  d :     0.025123
      dxz     :     0.004807
      dyz     :     0.005194
      dx2y2   :     0.000165
      dxy     :     0.000175

  2 C s       :     2.821267  s :     2.821267
      pz      :     1.107860  p :     3.081044
      px      :     1.025521
      py      :     0.947663
      dz2     :     0.032730  d :     0.096497
      dxz     :     0.023594
      dyz     :     0.015983
      dx2y2   :     0.009128
      dxy     :     0.015062

  3 H s       :     0.879570  s :     0.879570
      pz      :     0.014675  p :     0.071132
      px      :     0.033889
      py      :     0.022569

  4 H s       :     0.857967  s :     0.857967
      pz      :     0.025241  p :     0.077489
      px      :     0.015332
      py      :     0.036917

  5 S s       :     4.927635  s :     4.927635
      pz      :     2.971933  p :     9.041316
      px      :     3.063198
      py      :     3.006185
      dz2     :     0.191894  d :     0.680608
      dxz     :     0.115620
      dyz     :     0.170056
      dx2y2   :     0.059961
      dxy     :     0.143076

  6 C s       :     2.880280  s :     2.880280
      pz      :     1.124126  p :     3.238398
      px      :     1.071486
      py      :     1.042786
      dz2     :     0.042654  d :     0.117273
      dxz     :     0.023321
      dyz     :     0.016778
      dx2y2   :     0.010048
      dxy     :     0.024472

  7 C s       :     2.880272  s :     2.880272
      pz      :     1.110079  p :     3.238335
      px      :     1.071521
      py      :     1.056734
      dz2     :     0.022924  d :     0.117276
      dxz     :     0.022587
      dyz     :     0.028105
      dx2y2   :     0.018457
      dxy     :     0.025203

  8 O s       :     3.685928  s :     3.685928
      pz      :     1.607669  p :     4.908190
      px      :     1.753933
      py      :     1.546588
      dz2     :     0.003356  d :     0.025120
      dxz     :     0.001816
      dyz     :     0.010998
      dx2y2   :     0.005784
      dxy     :     0.003166

  9 H s       :     0.857954  s :     0.857954
      pz      :     0.047573  p :     0.077487
      px      :     0.015337
      py      :     0.014577

 10 C s       :     2.821256  s :     2.821256
      pz      :     1.039121  p :     3.081073
      px      :     1.025675
      py      :     1.016277
      dz2     :     0.020662  d :     0.096504
      dxz     :     0.022303
      dyz     :     0.021416
      dx2y2   :     0.015758
      dxy     :     0.016366

 11 H s       :     0.879571  s :     0.879571
      pz      :     0.014274  p :     0.071133
      px      :     0.033911
      py      :     0.022948

 12 H s       :     0.861337  s :     0.861337
      pz      :     0.021447  p :     0.073782
      px      :     0.014659
      py      :     0.037677



                      *****************************
                      * MAYER POPULATION ANALYSIS *
                      *****************************

  NA   - Mulliken gross atomic population
  ZA   - Total nuclear charge
  QA   - Mulliken gross atomic charge
  VA   - Mayer's total valence
  BVA  - Mayer's bonded valence
  FA   - Mayer's free valence

  ATOM       NA         ZA         QA         VA         BVA        FA
  0 H      0.7996     1.0000     0.2004     0.9235     0.9235    -0.0000
  1 O      8.2539     8.0000    -0.2539     1.6424     1.6424     0.0000
  2 C      6.3040     6.0000    -0.3040     4.0352     4.0352    -0.0000
  3 H      0.8633     1.0000     0.1367     0.9806     0.9806    -0.0000
  4 H      0.7531     1.0000     0.2469     0.8798     0.8798     0.0000
  5 S     15.8868    16.0000     0.1132     5.8410     5.8410     0.0000
  6 C      6.0826     6.0000    -0.0826     3.2070     3.2070    -0.0000
  7 C      6.0834     6.0000    -0.0834     3.2077     3.2077     0.0000
  8 O      8.2544     8.0000    -0.2544     1.6421     1.6421     0.0000
  9 H      0.7533     1.0000     0.2467     0.8800     0.8800    -0.0000
 10 C      6.3030     6.0000    -0.3030     4.0346     4.0346     0.0000
 11 H      0.8636     1.0000     0.1364     0.9811     0.9811     0.0000
 12 H      0.7991     1.0000     0.2009     0.9228     0.9228     0.0000

  Mayer bond orders larger than 0.100000
B(  0-H ,  2-C ) :   0.9350 B(  1-O ,  5-S ) :   2.0629 B(  1-O ,  7-C ) :  -0.1366 
B(  1-O ,  8-O ) :  -0.2390 B(  2-C ,  3-H ) :   0.9303 B(  2-C ,  5-S ) :   0.1011 
B(  2-C ,  6-C ) :   1.9505 B(  4-H ,  7-C ) :   0.8355 B(  5-S ,  6-C ) :   0.7354 
B(  5-S ,  7-C ) :   0.7356 B(  5-S ,  8-O ) :   2.0628 B(  5-S , 10-C ) :   0.1020 
B(  6-C ,  7-C ) :  -0.1915 B(  6-C ,  8-O ) :  -0.1369 B(  6-C ,  9-H ) :   0.8352 
B(  7-C , 10-C ) :   1.9503 B( 10-C , 11-H ) :   0.9305 B( 10-C , 12-H ) :   0.9347 


-------
TIMINGS
-------

Total SCF time: 0 days 0 hours 0 min 2 sec 

Total time                  ....       2.015 sec
Sum of individual times     ....       1.983 sec  ( 98.4%)

SCF preparation             ....       0.865 sec  ( 42.9%)
Fock matrix formation       ....       1.006 sec  ( 49.9%)
  Startup                   ....       0.005 sec  (  0.5% of F)
  Split-RI-J                ....       0.085 sec  (  8.4% of F)
  Chain of spheres X        ....       0.755 sec  ( 75.1% of F)
  XC integration            ....       0.147 sec  ( 14.6% of F)
    Basis function eval.    ....       0.028 sec  ( 19.2% of XC)
    Density eval.           ....       0.025 sec  ( 17.0% of XC)
    XC-Functional eval.     ....       0.005 sec  (  3.5% of XC)
    XC-Potential eval.      ....       0.030 sec  ( 20.4% of XC)
Diagonalization             ....       0.000 sec  (  0.0%)
Density matrix formation    ....       0.009 sec  (  0.4%)
Total Energy calculation    ....       0.009 sec  (  0.4%)
Population analysis         ....       0.030 sec  (  1.5%)
Orbital Transformation      ....       0.012 sec  (  0.6%)
Orbital Orthonormalization  ....       0.000 sec  (  0.0%)
DIIS solution               ....       0.015 sec  (  0.8%)
SOSCF solution              ....       0.037 sec  (  1.9%)
Finished LeanSCF after   2.0 sec

Maximum memory used throughout the entire LEANSCF-calculation: 23.3 MB
[ga00:158057] 31 more processes have sent help message help-mpi-btl-openib.txt / error in device init
[ga00:158057] Set MCA parameter "orte_base_help_aggregate" to 0 to see all help / error messages


-------------------------------------------------------------------------------
                          DFT DISPERSION CORRECTION                            
                                                                               
                              DFTD3 V3.1  Rev 1                                
                          USING Becke-Johnson damping                          
-------------------------------------------------------------------------------
The B3LYP functional is recognized
Active option DFTDOPT                   ...         4   

molecular C6(AA) [au] = 2393.432027 


            DFT-D V3
 parameters
 s6 scaling factor         :     1.0000 
 a1 scaling factor         :     0.3981 
 s8 scaling factor         :     1.9889 
 a2 scaling factor         :     4.4211 
 ad hoc parameters k1-k3   :    16.0000     1.3333    -4.0000 

 Edisp/kcal,au: -14.227918927604  -0.022673629639 
 E6   /kcal   :  -6.373587678 
 E8   /kcal   :  -7.854331250 
 % E8         :  55.203654799 

-------------------------   ----------------
Dispersion correction           -0.022673630
-------------------------   ----------------


-------------------------   --------------------
FINAL SINGLE POINT ENERGY      -704.459956869551
-------------------------   --------------------

                                *** OPTIMIZATION RUN DONE ***

--------------------------------------------------------------------------
WARNING: There was an error initializing an OpenFabrics device.

  Local host:   ga00
  Local device: mlx5_0
--------------------------------------------------------------------------


           ************************************************************
           *        Program running with 32 parallel MPI-processes    *
           *              working on a common directory               *
           ************************************************************

------------------------------------------------------------------------------
                              ORCA PROPERTY CALCULATIONS
------------------------------------------------------------------------------

GBWName                                 ... input.gbw
Number of atoms                         ...     13
Number of basis functions               ...    204
Max core memory                         ...   5000 MB

Electric properties:
Dipole moment                           ... YES
Quadrupole moment                       ...  NO
Static polarizability (Dipole/Dipole)   ...  NO
Static polarizability (Dipole/Quad.)    ...  NO
Static polarizability (Quad./Quad.)     ...  NO
Static polarizability (Velocity)        ...  NO

Atomic electric properties:
Dipole moment                           ...  NO
Quadrupole moment                       ...  NO
Static polarizability                   ...  NO

Choice of electric origin               ... Center of mass
Position of electric origin             ...    -0.241474     0.026251    -1.272805

General magnetic properties:
Magnetizability                         ...  NO

EPR properties:
g-Tensor (aka g-matrix)                 ...  NO
Zero-Field splitting spin-orbit         ...  NO
Zero-field splitting spin-spin          ...  NO
Hyperfine couplings                     ...  NO (   0 nuclei)
Quadrupole couplings                    ...  NO (   0 nuclei)
Contact density                         ...  NO (   0 nuclei)

NMR properties:
Chemical shifts                         ...  NO (   0 nuclei)
Spin-rotation constants                 ...  NO (   0 nuclei)
Spin-spin couplings                     ...  NO (   0 nuclei,    0 pairs)

Choice of magnetic origin               ... GIAO
Position of magnetic origin             ...     0.000000     0.000000     0.000000

Properties with geometric perturbations:
SCF Hessian                             ...  NO
IR spectrum                             ...  NO
VCD spectrum                            ...  NO
X-ray spectroscopy properties:
SCF XES/XAS/RIXS spectra                ...  NO


-------------
DIPOLE MOMENT
-------------

Method             : SCF
Type of density    : Electron Density
Multiplicity       :   1
Irrep              :   0
Energy             :  -704.4372832399118352 Eh
Relativity type    : 
Basis              : AO
                                X                 Y                 Z
Electronic contribution:      0.001319350       3.561604968      -1.528430784
Nuclear contribution   :     -0.002157210      -5.313276742       2.279759874
                        -----------------------------------------
Total Dipole Moment    :     -0.000837861      -1.751671774       0.751329090
                        -----------------------------------------
Magnitude (a.u.)       :      1.906003701
Magnitude (Debye)      :      4.844676395



--------------------
Rotational spectrum 
--------------------
 
Rotational constants in cm-1:             0.121017             0.059464             0.055073 
Rotational constants in MHz :          3627.985385          1782.678327          1651.032852 

Dipole components along the rotational axes: 
x,y,z [a.u.] :     0.000272    -1.906004     0.000024 
x,y,z [Debye]:     0.000691    -4.844676     0.000061 

 

Dipole moment calculation done in   0.0 sec 

Maximum memory used throughout the entire PROP-calculation: 11.5 MB
[ga00:158211] 31 more processes have sent help message help-mpi-btl-openib.txt / error in device init
[ga00:158211] Set MCA parameter "orte_base_help_aggregate" to 0 to see all help / error messages
--------------------------------------------------------------------------
WARNING: There was an error initializing an OpenFabrics device.

  Local host:   ga00
  Local device: mlx5_0
--------------------------------------------------------------------------
[ga00:158353] 31 more processes have sent help message help-mpi-btl-openib.txt / error in device init
[ga00:158353] Set MCA parameter "orte_base_help_aggregate" to 0 to see all help / error messages

--------------------------------
SUGGESTED CITATIONS FOR THIS RUN
--------------------------------

Below you find a list of papers that are relevant to this ORCA run
We neither can nor want to force you to cite these papers, but we appreciate if you do
You receive ORCA, which is the product of decades of hard work by many enthusiastic individuals, for free
The only thing we kindly ask in return is that you cite our papers,
We deeply appreciate it, if you show your appreciation for ORCA by not just citing the generic ORCA reference.

Please note that relegating all ORCA citations to the supporting information does *not* help us.
SI sections are not indexed - citations you put there will not count into any citation statistics
But we need these citations in order to attract the funding resources that allow us to do what we are doing

Therefore, if you are a happy ORCA user, please consider citing a few of the papers listed below in the main body of your paper

In addition to the list printed below, the program has created the file input.bibtex that contains the list in bibtex format
You can import this file easily into all common literature databanks and citation aid programs


List of essential papers. We consider these as the minimum necessary citations

  1. Neese,F.
     Software update: the ORCA program system, version 5.0
     WIRES Comput. Molec. Sci., 2022 12(1)e1606
     doi.org/10.1002/wcms.1606

List of papers to cite with high priority. The work reported in these papers was absolutely
necessary for this run to complete.
Our perspective: the developers of density functionals and basis sets usually get cited in chemistry papers
Good! But without the algorithms to do something with them, the functionals or basis sets would not do anything.
Hence, in our opinion, the algorithm design and method developments papers are equally worthy of getting cited

  1. Neese,F.
     An improvement of the resolution of the identity approximation for the formation of the Coulomb matrix
     J. Comp. Chem., 2003 24(14)1740-1747
     doi.org/10.1002/jcc.10318
  2. Neese,F.; Wennmohs,F.; Hansen,A.; Becker,U.
     Efficient, approximate and parallel Hartree-Fock and hybrid DFT calculations. A 'chain-of-spheres' algorithm for the Hartree-Fock exchange
     Chem. Phys., 2009 356(1-3)98-109
     doi.org/10.1016/j.chemphys.2008.10.036
  3. Helmich-Paris,B.; de Souza,B.; Neese,F.; Izsák,R.
     An improved chain of spheres for exchange algorithm
     J. Chem. Phys., 2021 155 104109
     doi.org/doi: 10.1063/5.0058766.
  4. Neese,F.
     The SHARK Integral Generation and Digestion System
     J. Comp. Chem., 2022  1-16
     doi.org/10.1002/jcc.26942
  5. Grimme,S.; Antony,J.; Ehrlich,S.; Krieg,H.
     A consistent and accurate ab initio parametrization of density functional dispersion correction (DFT-D) for the 94 elements H-Pu
     J. Chem. Phys., 2010 132 154104
     doi.org/10.1063/1.3382344
  6. Grimme,S.; Ehrlich,S.; Goerigk,L.
     Effect of the damping function in dispersion corrected density functional theory
     J. Comput. Chem., 2011 32(7)1456-1465
     doi.org/10.1002/jcc.21759

List of suggested additional citations. These are papers that are important in the 'surrounding' of 
of this run, or papers that preceded the highly important papers. If you like your results we are grateful for a citation.

  1. Izsak,R.; Neese,F.
     An overlap fitted chain of spheres exchange method
     J. Chem. Phys., 2011 135 144105
     doi.org/10.1063/1.3646921
  2. Izsak,R.; Hansen,A.; Neese,F.
     The resolution of identity and chain of spheres approximations for the LPNO-CCSD singles Fock term
     Molec. Phys., 2012 110 2413-2417
     doi.org/10.1080/00268976.2012.687466
  3. Neese,F.
     The ORCA program system
     WIRES Comput. Molec. Sci., 2012 2(1)73-78
     doi.org/10.1002/wcms.81
  4. Izsak,R.; Neese,F.; Klopper,W.
     Robust fitting techniques in the chain of spheres approximation to the Fock exchange: The role of the complementary space
     J. Chem. Phys., 2013 139 
     doi.org/10.1063/1.4819264
  5. Neese,F.
     Software update: the ORCA program system, version 4.0
     WIRES Comput. Molec. Sci., 2018 8(1)1-6
     doi.org/10.1002/wcms.1327
  6. Neese,F.; Wennmohs,F.; Becker,U.; Riplinger,C.
     The ORCA quantum chemistry program package
     J. Chem. Phys., 2020 152 Art. No. L224108
     doi.org/10.1063/5.0004608

List of optional additional citations

  1. Neese,F.
     Approximate second-order SCF convergence for spin unrestricted wavefunctions
     Chem. Phys. Lett., 2000 325(1-3)93-98
     doi.org/10.1016/s0009-2614(00)00662-x

Timings for individual modules:

Sum of individual times          ...       90.357 sec (=   1.506 min)
Startup calculation              ...       17.168 sec (=   0.286 min)  19.0 %
SCF iterations                   ...       47.508 sec (=   0.792 min)  52.6 %
Property calculations            ...        1.257 sec (=   0.021 min)   1.4 %
SCF Gradient evaluation          ...       24.397 sec (=   0.407 min)  27.0 %
Geometry relaxation              ...        0.026 sec (=   0.000 min)   0.0 %
                             ****ORCA TERMINATED NORMALLY****
TOTAL RUN TIME: 0 days 0 hours 1 minutes 42 seconds 100 msec
